s 0.000640000 _0_ MAC  --- 0 CM7 8 [0 ffffffff 0 0] 
r 0.001088033 _2_ MAC  --- 0 CM7 8 [0 ffffffff 0 0] 
r 0.001088033 _1_ MAC  --- 0 CM7 8 [0 ffffffff 0 0] 
r 0.001088037 _3_ MAC  --- 0 CM7 8 [0 ffffffff 0 0] 
r 0.001088047 _7_ MAC  --- 0 CM7 8 [0 ffffffff 0 0] 
s 0.141760000 _0_ MAC  --- 0 CM7 8 [0 ffffffff 0 0] 
s 0.282560000 _0_ MAC  --- 0 CM7 8 [0 ffffffff 0 0] 
s 0.502560000 _1_ MAC  --- 0 CM7 8 [0 ffffffff 1 0] 
r 0.503008033 _4_ MAC  --- 0 CM7 8 [0 ffffffff 1 0] 
r 0.503008033 _5_ MAC  --- 0 CM7 8 [0 ffffffff 1 0] 
r 0.503008033 _0_ MAC  --- 0 CM7 8 [0 ffffffff 1 0] 
r 0.503008033 _10_ MAC  --- 0 CM7 8 [0 ffffffff 1 0] 
s 0.503648033 _0_ MAC  --- 0 BCN 11 [0 1 0 0] 
s 0.766240000 _1_ MAC  --- 0 CM7 8 [0 ffffffff 1 0] 
s 1.028960000 _1_ MAC  --- 0 CM7 8 [0 ffffffff 1 0] 
s 1.292320000 _1_ MAC  --- 0 CM1 17 [0 0 1 0] 
r 1.293056033 _0_ MAC  --- 0 CM1 17 [0 0 1 0] 
s 1.293248033 _0_ MAC  --- 0 ACK 5 [0 1 0 0] 
r 1.293600067 _1_ MAC  --- 0 ACK 5 [0 1 0 0] 
s 1.785120067 _1_ MAC  --- 0 CM4 16 [0 0 1 0] 
r 1.785824100 _0_ MAC  --- 0 CM4 16 [0 0 1 0] 
s 1.786016100 _0_ MAC  --- 0 ACK 5 [0 1 0 0] 
r 1.786368133 _1_ MAC  --- 0 ACK 5 [0 1 0 0] 
s 1.786560100 _0_ MAC  --- 0 CM2 25 [0 1 0 0] 
r 1.787552133 _1_ MAC  --- 0 CM2 25 [0 1 0 0] 
s 1.787744133 _1_ MAC  --- 0 ACK 5 [0 0 1 0] 
r 1.788096167 _0_ MAC  --- 0 ACK 5 [0 0 1 0] 
s 1.801280000 _2_ MAC  --- 0 CM7 8 [0 ffffffff 2 0] 
r 1.801728033 _7_ MAC  --- 0 CM7 8 [0 ffffffff 2 0] 
r 1.801728033 _6_ MAC  --- 0 CM7 8 [0 ffffffff 2 0] 
r 1.801728033 _0_ MAC  --- 0 CM7 8 [0 ffffffff 2 0] 
s 1.803008033 _0_ MAC  --- 0 BCN 11 [0 2 0 0] 
s 2.064320000 _2_ MAC  --- 0 CM7 8 [0 ffffffff 2 0] 
s 2.328000000 _2_ MAC  --- 0 CM7 8 [0 ffffffff 2 0] 
s 2.591680000 _2_ MAC  --- 0 CM1 17 [0 0 2 0] 
r 2.592416033 _0_ MAC  --- 0 CM1 17 [0 0 2 0] 
s 2.592608033 _0_ MAC  --- 0 ACK 5 [0 2 0 0] 
r 2.592960066 _2_ MAC  --- 0 ACK 5 [0 2 0 0] 
s 3.084480066 _2_ MAC  --- 0 CM4 16 [0 0 2 0] 
r 3.085184099 _0_ MAC  --- 0 CM4 16 [0 0 2 0] 
s 3.085376099 _0_ MAC  --- 0 ACK 5 [0 2 0 0] 
r 3.085728132 _2_ MAC  --- 0 ACK 5 [0 2 0 0] 
s 3.085920099 _0_ MAC  --- 0 CM2 25 [0 2 0 0] 
r 3.086912132 _2_ MAC  --- 0 CM2 25 [0 2 0 0] 
s 3.087104132 _2_ MAC  --- 0 ACK 5 [0 0 2 0] 
r 3.087456165 _0_ MAC  --- 0 ACK 5 [0 0 2 0] 
s 3.101280000 _3_ MAC  --- 0 CM7 8 [0 ffffffff 3 0] 
r 3.101728034 _8_ MAC  --- 0 CM7 8 [0 ffffffff 3 0] 
r 3.101728034 _9_ MAC  --- 0 CM7 8 [0 ffffffff 3 0] 
r 3.101728037 _0_ MAC  --- 0 CM7 8 [0 ffffffff 3 0] 
s 3.103328037 _0_ MAC  --- 0 BCN 11 [0 3 0 0] 
s 3.363680000 _3_ MAC  --- 0 CM7 8 [0 ffffffff 3 0] 
s 3.625760000 _3_ MAC  --- 0 CM7 8 [0 ffffffff 3 0] 
s 3.890080000 _3_ MAC  --- 0 CM1 17 [0 0 3 0] 
r 3.890816037 _0_ MAC  --- 0 CM1 17 [0 0 3 0] 
s 3.891008037 _0_ MAC  --- 0 ACK 5 [0 3 0 0] 
r 3.891360073 _3_ MAC  --- 0 ACK 5 [0 3 0 0] 
s 4.382880073 _3_ MAC  --- 0 CM4 16 [0 0 3 0] 
r 4.383584110 _0_ MAC  --- 0 CM4 16 [0 0 3 0] 
s 4.383776110 _0_ MAC  --- 0 ACK 5 [0 3 0 0] 
r 4.384128147 _3_ MAC  --- 0 ACK 5 [0 3 0 0] 
s 4.384320110 _0_ MAC  --- 0 CM2 25 [0 3 0 0] 
r 4.385312147 _3_ MAC  --- 0 CM2 25 [0 3 0 0] 
s 4.385504147 _3_ MAC  --- 0 ACK 5 [0 0 3 0] 
r 4.385856184 _0_ MAC  --- 0 ACK 5 [0 0 3 0] 
s 4.400640000 _4_ MAC  --- 0 CM7 8 [0 ffffffff 4 0] 
r 4.401088025 _10_ MAC  --- 0 CM7 8 [0 ffffffff 4 0] 
r 4.401088033 _1_ MAC  --- 0 CM7 8 [0 ffffffff 4 0] 
r 4.401088047 _5_ MAC  --- 0 CM7 8 [0 ffffffff 4 0] 
s 4.403648033 _1_ MAC  --- 0 BCN 11 [0 4 1 0] 
s 4.663360000 _4_ MAC  --- 0 CM7 8 [0 ffffffff 4 0] 
s 4.927680000 _4_ MAC  --- 0 CM7 8 [0 ffffffff 4 0] 
s 5.190080000 _4_ MAC  --- 0 CM1 17 [0 1 4 0] 
r 5.190816033 _1_ MAC  --- 0 CM1 17 [0 1 4 0] 
s 5.191008033 _1_ MAC  --- 0 ACK 5 [0 4 1 0] 
r 5.191360066 _4_ MAC  --- 0 ACK 5 [0 4 1 0] 
s 5.682880066 _4_ MAC  --- 0 CM4 16 [0 1 4 0] 
r 5.683584099 _1_ MAC  --- 0 CM4 16 [0 1 4 0] 
s 5.683776099 _1_ MAC  --- 0 ACK 5 [0 4 1 0] 
r 5.684128132 _4_ MAC  --- 0 ACK 5 [0 4 1 0] 
s 5.684320099 _1_ MAC  --- 0 CM2 25 [0 4 1 0] 
r 5.685312132 _4_ MAC  --- 0 CM2 25 [0 4 1 0] 
s 5.685504132 _4_ MAC  --- 0 ACK 5 [0 1 4 0] 
r 5.685856165 _1_ MAC  --- 0 ACK 5 [0 1 4 0] 
s 5.700640000 _5_ MAC  --- 0 CM7 8 [0 ffffffff 5 0] 
r 5.701088025 _10_ MAC  --- 0 CM7 8 [0 ffffffff 5 0] 
r 5.701088033 _1_ MAC  --- 0 CM7 8 [0 ffffffff 5 0] 
r 5.701088047 _4_ MAC  --- 0 CM7 8 [0 ffffffff 5 0] 
s 5.702688033 _1_ MAC  --- 0 BCN 11 [0 5 1 0] 
s 5.962720000 _5_ MAC  --- 0 CM7 8 [0 ffffffff 5 0] 
s 6.226400000 _5_ MAC  --- 0 CM7 8 [0 ffffffff 5 0] 
s 6.489760000 _5_ MAC  --- 0 CM1 17 [0 1 5 0] 
r 6.490496033 _1_ MAC  --- 0 CM1 17 [0 1 5 0] 
s 6.490688033 _1_ MAC  --- 0 ACK 5 [0 5 1 0] 
r 6.491040066 _5_ MAC  --- 0 ACK 5 [0 5 1 0] 
s 6.982560066 _5_ MAC  --- 0 CM4 16 [0 1 5 0] 
r 6.983264099 _1_ MAC  --- 0 CM4 16 [0 1 5 0] 
s 6.983456099 _1_ MAC  --- 0 ACK 5 [0 5 1 0] 
r 6.983808132 _5_ MAC  --- 0 ACK 5 [0 5 1 0] 
s 6.984000099 _1_ MAC  --- 0 CM2 25 [0 5 1 0] 
r 6.984992132 _5_ MAC  --- 0 CM2 25 [0 5 1 0] 
s 6.985184132 _5_ MAC  --- 0 ACK 5 [0 1 5 0] 
r 6.985536165 _1_ MAC  --- 0 ACK 5 [0 1 5 0] 
s 7.000640000 _6_ MAC  --- 0 CM7 8 [0 ffffffff 6 0] 
r 7.001088033 _2_ MAC  --- 0 CM7 8 [0 ffffffff 6 0] 
r 7.001088047 _7_ MAC  --- 0 CM7 8 [0 ffffffff 6 0] 
s 7.001728033 _2_ MAC  --- 0 BCN 11 [0 6 2 0] 
s 7.263680000 _6_ MAC  --- 0 CM7 8 [0 ffffffff 6 0] 
s 7.526400000 _6_ MAC  --- 0 CM7 8 [0 ffffffff 6 0] 
s 7.790400000 _6_ MAC  --- 0 CM1 17 [0 2 6 0] 
r 7.791136033 _2_ MAC  --- 0 CM1 17 [0 2 6 0] 
s 7.791328033 _2_ MAC  --- 0 ACK 5 [0 6 2 0] 
r 7.791680066 _6_ MAC  --- 0 ACK 5 [0 6 2 0] 
s 8.283200066 _6_ MAC  --- 0 CM4 16 [0 2 6 0] 
r 8.283904099 _2_ MAC  --- 0 CM4 16 [0 2 6 0] 
s 8.284096099 _2_ MAC  --- 0 ACK 5 [0 6 2 0] 
r 8.284448132 _6_ MAC  --- 0 ACK 5 [0 6 2 0] 
s 8.284640099 _2_ MAC  --- 0 CM2 25 [0 6 2 0] 
r 8.285632132 _6_ MAC  --- 0 CM2 25 [0 6 2 0] 
s 8.285824132 _6_ MAC  --- 0 ACK 5 [0 2 6 0] 
r 8.286176165 _2_ MAC  --- 0 ACK 5 [0 2 6 0] 
s 8.301920000 _7_ MAC  --- 0 CM7 8 [0 ffffffff 7 0] 
r 8.302368033 _2_ MAC  --- 0 CM7 8 [0 ffffffff 7 0] 
r 8.302368047 _6_ MAC  --- 0 CM7 8 [0 ffffffff 7 0] 
r 8.302368047 _0_ MAC  --- 0 CM7 8 [0 ffffffff 7 0] 
s 8.304288033 _2_ MAC  --- 0 BCN 11 [0 7 2 0] 
s 8.312224047 _0_ MAC  --- 0 BCN 11 [0 7 0 0] 
s 8.564960000 _7_ MAC  --- 0 CM7 8 [0 ffffffff 7 0] 
s 8.828320000 _7_ MAC  --- 0 CM7 8 [0 ffffffff 7 0] 
s 9.090720000 _7_ MAC  --- 0 CM1 17 [0 2 7 0] 
r 9.091456033 _2_ MAC  --- 0 CM1 17 [0 2 7 0] 
s 9.091648033 _2_ MAC  --- 0 ACK 5 [0 7 2 0] 
r 9.092000066 _7_ MAC  --- 0 ACK 5 [0 7 2 0] 
s 9.583520066 _7_ MAC  --- 0 CM4 16 [0 2 7 0] 
r 9.584224099 _2_ MAC  --- 0 CM4 16 [0 2 7 0] 
s 9.584416099 _2_ MAC  --- 0 ACK 5 [0 7 2 0] 
r 9.584768132 _7_ MAC  --- 0 ACK 5 [0 7 2 0] 
s 9.584960099 _2_ MAC  --- 0 CM2 25 [0 7 2 0] 
r 9.585952132 _7_ MAC  --- 0 CM2 25 [0 7 2 0] 
s 9.586144132 _7_ MAC  --- 0 ACK 5 [0 2 7 0] 
r 9.586496165 _2_ MAC  --- 0 ACK 5 [0 2 7 0] 
s 9.601920000 _8_ MAC  --- 0 CM7 8 [0 ffffffff 8 0] 
r 9.602368034 _3_ MAC  --- 0 CM7 8 [0 ffffffff 8 0] 
r 9.602368047 _9_ MAC  --- 0 CM7 8 [0 ffffffff 8 0] 
s 9.604928034 _3_ MAC  --- 0 BCN 11 [0 8 3 0] 
s 9.865280000 _8_ MAC  --- 0 CM7 8 [0 ffffffff 8 0] 
s 10.128320000 _8_ MAC  --- 0 CM7 8 [0 ffffffff 8 0] 
s 10.392000000 _8_ MAC  --- 0 CM1 17 [0 3 8 0] 
r 10.392736034 _3_ MAC  --- 0 CM1 17 [0 3 8 0] 
s 10.392928034 _3_ MAC  --- 0 ACK 5 [0 8 3 0] 
r 10.393280068 _8_ MAC  --- 0 ACK 5 [0 8 3 0] 
s 10.884800068 _8_ MAC  --- 0 CM4 16 [0 3 8 0] 
r 10.885504103 _3_ MAC  --- 0 CM4 16 [0 3 8 0] 
s 10.885696103 _3_ MAC  --- 0 ACK 5 [0 8 3 0] 
r 10.886048137 _8_ MAC  --- 0 ACK 5 [0 8 3 0] 
s 10.886240103 _3_ MAC  --- 0 CM2 25 [0 8 3 0] 
r 10.887232137 _8_ MAC  --- 0 CM2 25 [0 8 3 0] 
s 10.887424137 _8_ MAC  --- 0 ACK 5 [0 3 8 0] 
r 10.887776171 _3_ MAC  --- 0 ACK 5 [0 3 8 0] 
s 10.901280000 _9_ MAC  --- 0 CM7 8 [0 ffffffff 9 0] 
r 10.901728034 _3_ MAC  --- 0 CM7 8 [0 ffffffff 9 0] 
r 10.901728047 _8_ MAC  --- 0 CM7 8 [0 ffffffff 9 0] 
s 10.902688034 _3_ MAC  --- 0 BCN 11 [0 9 3 0] 
s 11.165280000 _9_ MAC  --- 0 CM7 8 [0 ffffffff 9 0] 
s 11.428640000 _9_ MAC  --- 0 CM7 8 [0 ffffffff 9 0] 
s 11.691680000 _9_ MAC  --- 0 CM1 17 [0 3 9 0] 
r 11.692416034 _3_ MAC  --- 0 CM1 17 [0 3 9 0] 
s 11.692608034 _3_ MAC  --- 0 ACK 5 [0 9 3 0] 
r 11.692960068 _9_ MAC  --- 0 ACK 5 [0 9 3 0] 
s 12.184480068 _9_ MAC  --- 0 CM4 16 [0 3 9 0] 
r 12.185184103 _3_ MAC  --- 0 CM4 16 [0 3 9 0] 
s 12.185376103 _3_ MAC  --- 0 ACK 5 [0 9 3 0] 
r 12.185728137 _9_ MAC  --- 0 ACK 5 [0 9 3 0] 
s 12.185920103 _3_ MAC  --- 0 CM2 25 [0 9 3 0] 
r 12.186912137 _9_ MAC  --- 0 CM2 25 [0 9 3 0] 
s 12.187104137 _9_ MAC  --- 0 ACK 5 [0 3 9 0] 
r 12.187456171 _3_ MAC  --- 0 ACK 5 [0 3 9 0] 
s 12.200960000 _10_ MAC  --- 0 CM7 8 [0 ffffffff a 0] 
r 12.201408025 _4_ MAC  --- 0 CM7 8 [0 ffffffff a 0] 
r 12.201408025 _5_ MAC  --- 0 CM7 8 [0 ffffffff a 0] 
r 12.201408033 _1_ MAC  --- 0 CM7 8 [0 ffffffff a 0] 
s 12.203648033 _1_ MAC  --- 0 BCN 11 [0 a 1 0] 
s 12.464640000 _10_ MAC  --- 0 CM7 8 [0 ffffffff a 0] 
s 12.728960000 _10_ MAC  --- 0 CM7 8 [0 ffffffff a 0] 
s 12.992000000 _10_ MAC  --- 0 CM1 17 [0 1 a 0] 
r 12.992736033 _1_ MAC  --- 0 CM1 17 [0 1 a 0] 
s 12.992928033 _1_ MAC  --- 0 ACK 5 [0 a 1 0] 
r 12.993280067 _10_ MAC  --- 0 ACK 5 [0 a 1 0] 
s 13.484800067 _10_ MAC  --- 0 CM4 16 [0 1 a 0] 
r 13.485504100 _1_ MAC  --- 0 CM4 16 [0 1 a 0] 
s 13.485696100 _1_ MAC  --- 0 ACK 5 [0 a 1 0] 
r 13.486048133 _10_ MAC  --- 0 ACK 5 [0 a 1 0] 
s 13.486240100 _1_ MAC  --- 0 CM2 25 [0 a 1 0] 
r 13.487232133 _10_ MAC  --- 0 CM2 25 [0 a 1 0] 
s 13.487424133 _10_ MAC  --- 0 ACK 5 [0 1 a 0] 
r 13.487776167 _1_ MAC  --- 0 ACK 5 [0 1 a 0] 
M 14.00000 4 (23.00, 47.00, 0.00), (37.00, 41.00), 0.90
M 14.00000 5 (37.00, 47.00, 0.00), (23.00, 41.00), 0.90
M 14.00000 6 (16.00, 16.00, 0.00), (22.00, 30.00), 0.90
M 14.00000 7 (16.00, 30.00, 0.00), (22.00, 16.00), 0.90
M 14.00000 8 (46.00, 30.00, 0.00), (40.00, 16.00), 0.90
M 14.00000 9 (46.00, 16.00, 0.00), (40.00, 30.00), 0.90
M 14.00000 10 (30.00, 50.00, 0.00), (48.00, 23.00), 0.90
s 20.000000000 _10_ AGT  --- 0 cbr 80 [0 0 0 0] ------- [10:0 0:0 32 0] [0] 0 0
r 20.000000000 _10_ RTR  --- 0 cbr 80 [0 0 0 0] ------- [10:0 0:0 32 0] [0] 0 0
v 20 eval {set sim_annotation {(at 20) cbr traffic from node 10 to node 0}}
s 20.000000000 _10_ RTR  --- 0 AODV 48 [0 0 0 0] ------- [10:255 -1:255 30 0] [0x2 1 1 [0 0] [10 4]] (REQUEST)
s 20.002265000 _10_ MAC  --- 0 AODV 55 [0 ffffffff a 800] ------- [10:255 -1:255 30 0] [0x2 1 1 [0 0] [10 4]] (REQUEST)
r 20.004857004 _5_ MAC  --- 0 AODV 48 [0 ffffffff a 800] ------- [10:255 -1:255 30 0] [0x2 1 1 [0 0] [10 4]] (REQUEST)
r 20.004857017 _4_ MAC  --- 0 AODV 48 [0 ffffffff a 800] ------- [10:255 -1:255 30 0] [0x2 1 1 [0 0] [10 4]] (REQUEST)
r 20.004857021 _1_ MAC  --- 0 AODV 48 [0 ffffffff a 800] ------- [10:255 -1:255 30 0] [0x2 1 1 [0 0] [10 4]] (REQUEST)
r 20.004882004 _5_ RTR  --- 0 AODV 48 [0 ffffffff a 800] ------- [10:255 -1:255 30 0] [0x2 1 1 [0 0] [10 4]] (REQUEST)
r 20.004882017 _4_ RTR  --- 0 AODV 48 [0 ffffffff a 800] ------- [10:255 -1:255 30 0] [0x2 1 1 [0 0] [10 4]] (REQUEST)
r 20.004882021 _1_ RTR  --- 0 AODV 48 [0 ffffffff a 800] ------- [10:255 -1:255 30 0] [0x2 1 1 [0 0] [10 4]] (REQUEST)
s 20.008442607 _1_ RTR  --- 0 AODV 48 [0 ffffffff a 800] ------- [1:255 -1:255 29 0] [0x2 2 1 [0 0] [10 4]] (REQUEST)
s 20.010387607 _1_ MAC  --- 0 AODV 55 [0 ffffffff 1 800] ------- [1:255 -1:255 29 0] [0x2 2 1 [0 0] [10 4]] (REQUEST)
s 20.012240409 _5_ RTR  --- 0 AODV 48 [0 ffffffff a 800] ------- [5:255 -1:255 29 0] [0x2 2 1 [0 0] [10 4]] (REQUEST)
s 20.012902136 _4_ RTR  --- 0 AODV 48 [0 ffffffff a 800] ------- [4:255 -1:255 29 0] [0x2 2 1 [0 0] [10 4]] (REQUEST)
r 20.012979624 _4_ MAC  --- 0 AODV 48 [0 ffffffff 1 800] ------- [1:255 -1:255 29 0] [0x2 2 1 [0 0] [10 4]] (REQUEST)
r 20.012979624 _5_ MAC  --- 0 AODV 48 [0 ffffffff 1 800] ------- [1:255 -1:255 29 0] [0x2 2 1 [0 0] [10 4]] (REQUEST)
r 20.012979628 _10_ MAC  --- 0 AODV 48 [0 ffffffff 1 800] ------- [1:255 -1:255 29 0] [0x2 2 1 [0 0] [10 4]] (REQUEST)
r 20.012979640 _0_ MAC  --- 0 AODV 48 [0 ffffffff 1 800] ------- [1:255 -1:255 29 0] [0x2 2 1 [0 0] [10 4]] (REQUEST)
r 20.013004624 _4_ RTR  --- 0 AODV 48 [0 ffffffff 1 800] ------- [1:255 -1:255 29 0] [0x2 2 1 [0 0] [10 4]] (REQUEST)
r 20.013004624 _5_ RTR  --- 0 AODV 48 [0 ffffffff 1 800] ------- [1:255 -1:255 29 0] [0x2 2 1 [0 0] [10 4]] (REQUEST)
r 20.013004628 _10_ RTR  --- 0 AODV 48 [0 ffffffff 1 800] ------- [1:255 -1:255 29 0] [0x2 2 1 [0 0] [10 4]] (REQUEST)
r 20.013004640 _0_ RTR  --- 0 AODV 48 [0 ffffffff 1 800] ------- [1:255 -1:255 29 0] [0x2 2 1 [0 0] [10 4]] (REQUEST)
s 20.013004640 _0_ RTR  --- 0 AODV 44 [0 0 0 0] ------- [0:255 10:255 30 1] [0x4 1 [0 4] 10.000000] (REPLY)
s 20.013567136 _4_ MAC  --- 0 AODV 55 [0 ffffffff 4 800] ------- [4:255 -1:255 29 0] [0x2 2 1 [0 0] [10 4]] (REQUEST)
s 20.015569640 _0_ MAC  --- 0 ARP 35 [0 ffffffff 0 806] ------- [REQUEST 0/0 0/1]
r 20.016159149 _5_ MAC  --- 0 AODV 48 [0 ffffffff 4 800] ------- [4:255 -1:255 29 0] [0x2 2 1 [0 0] [10 4]] (REQUEST)
r 20.016159152 _10_ MAC  --- 0 AODV 48 [0 ffffffff 4 800] ------- [4:255 -1:255 29 0] [0x2 2 1 [0 0] [10 4]] (REQUEST)
r 20.016159153 _1_ MAC  --- 0 AODV 48 [0 ffffffff 4 800] ------- [4:255 -1:255 29 0] [0x2 2 1 [0 0] [10 4]] (REQUEST)
r 20.016184149 _5_ RTR  --- 0 AODV 48 [0 ffffffff 4 800] ------- [4:255 -1:255 29 0] [0x2 2 1 [0 0] [10 4]] (REQUEST)
r 20.016184152 _10_ RTR  --- 0 AODV 48 [0 ffffffff 4 800] ------- [4:255 -1:255 29 0] [0x2 2 1 [0 0] [10 4]] (REQUEST)
r 20.016184153 _1_ RTR  --- 0 AODV 48 [0 ffffffff 4 800] ------- [4:255 -1:255 29 0] [0x2 2 1 [0 0] [10 4]] (REQUEST)
s 20.016233409 _5_ MAC  --- 0 AODV 55 [0 ffffffff 5 800] ------- [5:255 -1:255 29 0] [0x2 2 1 [0 0] [10 4]] (REQUEST)
r 20.017521673 _2_ MAC  --- 0 ARP 28 [0 ffffffff 0 806] ------- [REQUEST 0/0 0/1]
r 20.017521677 _3_ MAC  --- 0 ARP 28 [0 ffffffff 0 806] ------- [REQUEST 0/0 0/1]
r 20.017521683 _7_ MAC  --- 0 ARP 28 [0 ffffffff 0 806] ------- [REQUEST 0/0 0/1]
r 20.017521689 _8_ MAC  --- 0 ARP 28 [0 ffffffff 0 806] ------- [REQUEST 0/0 0/1]
r 20.017521690 _6_ MAC  --- 0 ARP 28 [0 ffffffff 0 806] ------- [REQUEST 0/0 0/1]
D 20.018185427 _1_ MAC  LQI 0 AODV 55 [0 ffffffff 5 800] ------- [5:255 -1:255 29 0] [0x2 2 1 [0 0] [10 4]] (REQUEST)
r 20.018825413 _10_ MAC  --- 0 AODV 48 [0 ffffffff 5 800] ------- [5:255 -1:255 29 0] [0x2 2 1 [0 0] [10 4]] (REQUEST)
r 20.018825423 _4_ MAC  --- 0 AODV 48 [0 ffffffff 5 800] ------- [5:255 -1:255 29 0] [0x2 2 1 [0 0] [10 4]] (REQUEST)
r 20.018850413 _10_ RTR  --- 0 AODV 48 [0 ffffffff 5 800] ------- [5:255 -1:255 29 0] [0x2 2 1 [0 0] [10 4]] (REQUEST)
r 20.018850423 _4_ RTR  --- 0 AODV 48 [0 ffffffff 5 800] ------- [5:255 -1:255 29 0] [0x2 2 1 [0 0] [10 4]] (REQUEST)
s 20.200000000 _10_ AGT  --- 1 cbr 80 [0 0 0 0] ------- [10:0 0:0 32 0] [1] 0 0
r 20.200000000 _10_ RTR  --- 1 cbr 80 [0 0 0 0] ------- [10:0 0:0 32 0] [1] 0 0
s 20.400000000 _10_ AGT  --- 2 cbr 80 [0 0 0 0] ------- [10:0 0:0 32 0] [2] 0 0
r 20.400000000 _10_ RTR  --- 2 cbr 80 [0 0 0 0] ------- [10:0 0:0 32 0] [2] 0 0
s 20.600000000 _10_ AGT  --- 3 cbr 80 [0 0 0 0] ------- [10:0 0:0 32 0] [3] 0 0
r 20.600000000 _10_ RTR  --- 3 cbr 80 [0 0 0 0] ------- [10:0 0:0 32 0] [3] 0 0
s 20.800000000 _10_ AGT  --- 4 cbr 80 [0 0 0 0] ------- [10:0 0:0 32 0] [4] 0 0
r 20.800000000 _10_ RTR  --- 4 cbr 80 [0 0 0 0] ------- [10:0 0:0 32 0] [4] 0 0
s 21.000000000 _10_ AGT  --- 5 cbr 80 [0 0 0 0] ------- [10:0 0:0 32 0] [5] 0 0
r 21.000000000 _10_ RTR  --- 5 cbr 80 [0 0 0 0] ------- [10:0 0:0 32 0] [5] 0 0
s 21.200000000 _10_ AGT  --- 6 cbr 80 [0 0 0 0] ------- [10:0 0:0 32 0] [6] 0 0
r 21.200000000 _10_ RTR  --- 6 cbr 80 [0 0 0 0] ------- [10:0 0:0 32 0] [6] 0 0
s 21.400000000 _10_ AGT  --- 7 cbr 80 [0 0 0 0] ------- [10:0 0:0 32 0] [7] 0 0
r 21.400000000 _10_ RTR  --- 7 cbr 80 [0 0 0 0] ------- [10:0 0:0 32 0] [7] 0 0
s 21.600000000 _10_ AGT  --- 8 cbr 80 [0 0 0 0] ------- [10:0 0:0 32 0] [8] 0 0
r 21.600000000 _10_ RTR  --- 8 cbr 80 [0 0 0 0] ------- [10:0 0:0 32 0] [8] 0 0
s 21.800000000 _10_ AGT  --- 9 cbr 80 [0 0 0 0] ------- [10:0 0:0 32 0] [9] 0 0
r 21.800000000 _10_ RTR  --- 9 cbr 80 [0 0 0 0] ------- [10:0 0:0 32 0] [9] 0 0
s 22.000000000 _10_ AGT  --- 10 cbr 80 [0 0 0 0] ------- [10:0 0:0 32 0] [10] 0 0
r 22.000000000 _10_ RTR  --- 10 cbr 80 [0 0 0 0] ------- [10:0 0:0 32 0] [10] 0 0
s 22.000000000 _10_ RTR  --- 0 AODV 48 [0 0 0 0] ------- [10:255 -1:255 30 0] [0x2 1 2 [0 0] [10 6]] (REQUEST)
s 22.001305000 _10_ MAC  --- 0 AODV 55 [0 ffffffff a 800] ------- [10:255 -1:255 30 0] [0x2 1 2 [0 0] [10 6]] (REQUEST)
r 22.003897012 _5_ MAC  --- 0 AODV 48 [0 ffffffff a 800] ------- [10:255 -1:255 30 0] [0x2 1 2 [0 0] [10 6]] (REQUEST)
r 22.003897015 _4_ MAC  --- 0 AODV 48 [0 ffffffff a 800] ------- [10:255 -1:255 30 0] [0x2 1 2 [0 0] [10 6]] (REQUEST)
r 22.003897019 _1_ MAC  --- 0 AODV 48 [0 ffffffff a 800] ------- [10:255 -1:255 30 0] [0x2 1 2 [0 0] [10 6]] (REQUEST)
r 22.003897049 _0_ MAC  --- 0 AODV 48 [0 ffffffff a 800] ------- [10:255 -1:255 30 0] [0x2 1 2 [0 0] [10 6]] (REQUEST)
r 22.003922012 _5_ RTR  --- 0 AODV 48 [0 ffffffff a 800] ------- [10:255 -1:255 30 0] [0x2 1 2 [0 0] [10 6]] (REQUEST)
r 22.003922015 _4_ RTR  --- 0 AODV 48 [0 ffffffff a 800] ------- [10:255 -1:255 30 0] [0x2 1 2 [0 0] [10 6]] (REQUEST)
r 22.003922019 _1_ RTR  --- 0 AODV 48 [0 ffffffff a 800] ------- [10:255 -1:255 30 0] [0x2 1 2 [0 0] [10 6]] (REQUEST)
r 22.003922049 _0_ RTR  --- 0 AODV 48 [0 ffffffff a 800] ------- [10:255 -1:255 30 0] [0x2 1 2 [0 0] [10 6]] (REQUEST)
s 22.003922049 _0_ RTR  --- 0 AODV 44 [0 0 0 0] ------- [0:255 10:255 30 10] [0x4 1 [0 6] 10.000000] (REPLY)
s 22.003923764 _1_ RTR  --- 0 AODV 48 [0 ffffffff a 800] ------- [1:255 -1:255 29 0] [0x2 2 2 [0 0] [10 6]] (REQUEST)
s 22.004908764 _1_ MAC  --- 0 AODV 55 [0 ffffffff 1 800] ------- [1:255 -1:255 29 0] [0x2 2 2 [0 0] [10 6]] (REQUEST)
r 22.007500778 _4_ MAC  --- 0 AODV 48 [0 ffffffff 1 800] ------- [1:255 -1:255 29 0] [0x2 2 2 [0 0] [10 6]] (REQUEST)
r 22.007500778 _5_ MAC  --- 0 AODV 48 [0 ffffffff 1 800] ------- [1:255 -1:255 29 0] [0x2 2 2 [0 0] [10 6]] (REQUEST)
r 22.007500783 _10_ MAC  --- 0 AODV 48 [0 ffffffff 1 800] ------- [1:255 -1:255 29 0] [0x2 2 2 [0 0] [10 6]] (REQUEST)
r 22.007500798 _0_ MAC  --- 0 AODV 48 [0 ffffffff 1 800] ------- [1:255 -1:255 29 0] [0x2 2 2 [0 0] [10 6]] (REQUEST)
r 22.007525778 _4_ RTR  --- 0 AODV 48 [0 ffffffff 1 800] ------- [1:255 -1:255 29 0] [0x2 2 2 [0 0] [10 6]] (REQUEST)
r 22.007525778 _5_ RTR  --- 0 AODV 48 [0 ffffffff 1 800] ------- [1:255 -1:255 29 0] [0x2 2 2 [0 0] [10 6]] (REQUEST)
r 22.007525783 _10_ RTR  --- 0 AODV 48 [0 ffffffff 1 800] ------- [1:255 -1:255 29 0] [0x2 2 2 [0 0] [10 6]] (REQUEST)
r 22.007525798 _0_ RTR  --- 0 AODV 48 [0 ffffffff 1 800] ------- [1:255 -1:255 29 0] [0x2 2 2 [0 0] [10 6]] (REQUEST)
s 22.007658053 _4_ RTR  --- 0 AODV 48 [0 ffffffff a 800] ------- [4:255 -1:255 29 0] [0x2 2 2 [0 0] [10 6]] (REQUEST)
s 22.009383242 _5_ RTR  --- 0 AODV 48 [0 ffffffff a 800] ------- [5:255 -1:255 29 0] [0x2 2 2 [0 0] [10 6]] (REQUEST)
s 22.009923053 _4_ MAC  --- 0 AODV 55 [0 ffffffff 4 800] ------- [4:255 -1:255 29 0] [0x2 2 2 [0 0] [10 6]] (REQUEST)
s 22.010048242 _5_ MAC  --- 0 AODV 55 [0 ffffffff 5 800] ------- [5:255 -1:255 29 0] [0x2 2 2 [0 0] [10 6]] (REQUEST)
D 22.012000254 _10_ MAC  LQI 0 AODV 55 [0 ffffffff 5 800] ------- [5:255 -1:255 29 0] [0x2 2 2 [0 0] [10 6]] (REQUEST)
D 22.012000256 _1_ MAC  LQI 0 AODV 55 [0 ffffffff 5 800] ------- [5:255 -1:255 29 0] [0x2 2 2 [0 0] [10 6]] (REQUEST)
D 22.012000289 _0_ MAC  LQI 0 AODV 55 [0 ffffffff 5 800] ------- [5:255 -1:255 29 0] [0x2 2 2 [0 0] [10 6]] (REQUEST)
s 22.015063049 _0_ MAC  --- 0 ARP 35 [0 ffffffff 0 806] ------- [REQUEST 0/0 0/10]
r 22.017015082 _2_ MAC  --- 0 ARP 28 [0 ffffffff 0 806] ------- [REQUEST 0/0 0/10]
r 22.017015082 _1_ MAC  --- 0 ARP 28 [0 ffffffff 0 806] ------- [REQUEST 0/0 0/10]
r 22.017015085 _3_ MAC  --- 0 ARP 28 [0 ffffffff 0 806] ------- [REQUEST 0/0 0/10]
r 22.017015092 _7_ MAC  --- 0 ARP 28 [0 ffffffff 0 806] ------- [REQUEST 0/0 0/10]
r 22.017015093 _6_ MAC  --- 0 ARP 28 [0 ffffffff 0 806] ------- [REQUEST 0/0 0/10]
r 22.017015096 _4_ MAC  --- 0 ARP 28 [0 ffffffff 0 806] ------- [REQUEST 0/0 0/10]
r 22.017015096 _5_ MAC  --- 0 ARP 28 [0 ffffffff 0 806] ------- [REQUEST 0/0 0/10]
r 22.017015097 _10_ MAC  --- 0 ARP 28 [0 ffffffff 0 806] ------- [REQUEST 0/0 0/10]
r 22.017015098 _8_ MAC  --- 0 ARP 28 [0 ffffffff 0 806] ------- [REQUEST 0/0 0/10]
s 22.017340097 _10_ MAC  --- 0 ARP 35 [0 0 a 806] ------- [REPLY 10/10 0/0]
s 22.018844146 _0_ MAC  --- 0 ACK 5 [0 a 0 0] 
r 22.019196194 _10_ MAC  --- 0 ACK 5 [0 a 0 0] 
r 22.019836146 _0_ MAC  --- 0 ARP 28 [0 0 a 806] ------- [REPLY 10/10 0/0]
s 22.022081146 _0_ MAC  --- 0 AODV 51 [0 a 0 800] ------- [0:255 10:255 30 10] [0x4 1 [0 6] 10.000000] (REPLY)
s 22.024097194 _10_ MAC  --- 0 ACK 5 [0 0 a 0] 
r 22.024449243 _0_ MAC  --- 0 ACK 5 [0 0 a 0] 
r 22.025089194 _10_ MAC  --- 0 AODV 44 [0 a 0 800] ------- [0:255 10:255 30 10] [0x4 1 [0 6] 10.000000] (REPLY)
r 22.025114194 _10_ RTR  --- 0 AODV 44 [0 a 0 800] ------- [0:255 10:255 30 10] [0x4 1 [0 6] 10.000000] (REPLY)
s 22.025114194 _10_ RTR  --- 0 cbr 100 [0 0 0 0] ------- [10:0 0:0 30 0] [0] 0 0
s 22.026099194 _10_ MAC  --- 0 cbr 107 [0 0 a 800] ------- [10:0 0:0 30 0] [0] 0 0
s 22.029907243 _0_ MAC  --- 0 ACK 5 [0 a 0 0] 
r 22.030259291 _10_ MAC  --- 0 ACK 5 [0 a 0 0] 
r 22.030899243 _0_ MAC  --- 0 cbr 100 [0 0 a 800] ------- [10:0 0:0 30 0] [0] 1 0
r 22.030924243 _0_ AGT  --- 0 cbr 100 [0 0 a 800] ------- [10:0 0:0 30 0] [0] 1 0
s 22.035114194 _10_ RTR  --- 1 cbr 100 [0 0 0 0] ------- [10:0 0:0 30 0] [1] 0 0
s 22.037699194 _10_ MAC  --- 1 cbr 107 [0 0 a 800] ------- [10:0 0:0 30 0] [1] 0 0
s 22.041507243 _0_ MAC  --- 1 ACK 5 [0 a 0 0] 
r 22.041859291 _10_ MAC  --- 1 ACK 5 [0 a 0 0] 
r 22.042499243 _0_ MAC  --- 1 cbr 100 [0 0 a 800] ------- [10:0 0:0 30 0] [1] 1 0
r 22.042524243 _0_ AGT  --- 1 cbr 100 [0 0 a 800] ------- [10:0 0:0 30 0] [1] 1 0
s 22.045114194 _10_ RTR  --- 2 cbr 100 [0 0 0 0] ------- [10:0 0:0 30 0] [2] 0 0
s 22.047699194 _10_ MAC  --- 2 cbr 107 [0 0 a 800] ------- [10:0 0:0 30 0] [2] 0 0
s 22.051507243 _0_ MAC  --- 2 ACK 5 [0 a 0 0] 
r 22.051859291 _10_ MAC  --- 2 ACK 5 [0 a 0 0] 
r 22.052499243 _0_ MAC  --- 2 cbr 100 [0 0 a 800] ------- [10:0 0:0 30 0] [2] 1 0
r 22.052524243 _0_ AGT  --- 2 cbr 100 [0 0 a 800] ------- [10:0 0:0 30 0] [2] 1 0
s 22.055114194 _10_ RTR  --- 3 cbr 100 [0 0 0 0] ------- [10:0 0:0 30 0] [3] 0 0
s 22.056419194 _10_ MAC  --- 3 cbr 107 [0 0 a 800] ------- [10:0 0:0 30 0] [3] 0 0
s 22.060227243 _0_ MAC  --- 3 ACK 5 [0 a 0 0] 
r 22.060579291 _10_ MAC  --- 3 ACK 5 [0 a 0 0] 
r 22.061219243 _0_ MAC  --- 3 cbr 100 [0 0 a 800] ------- [10:0 0:0 30 0] [3] 1 0
r 22.061244243 _0_ AGT  --- 3 cbr 100 [0 0 a 800] ------- [10:0 0:0 30 0] [3] 1 0
s 22.065114194 _10_ RTR  --- 4 cbr 100 [0 0 0 0] ------- [10:0 0:0 30 0] [4] 0 0
s 22.067059194 _10_ MAC  --- 4 cbr 107 [0 0 a 800] ------- [10:0 0:0 30 0] [4] 0 0
s 22.070867243 _0_ MAC  --- 4 ACK 5 [0 a 0 0] 
r 22.071219291 _10_ MAC  --- 4 ACK 5 [0 a 0 0] 
r 22.071859243 _0_ MAC  --- 4 cbr 100 [0 0 a 800] ------- [10:0 0:0 30 0] [4] 1 0
r 22.071884243 _0_ AGT  --- 4 cbr 100 [0 0 a 800] ------- [10:0 0:0 30 0] [4] 1 0
s 22.075114194 _10_ RTR  --- 5 cbr 100 [0 0 0 0] ------- [10:0 0:0 30 0] [5] 0 0
s 22.077379194 _10_ MAC  --- 5 cbr 107 [0 0 a 800] ------- [10:0 0:0 30 0] [5] 0 0
s 22.081187243 _0_ MAC  --- 5 ACK 5 [0 a 0 0] 
r 22.081539291 _10_ MAC  --- 5 ACK 5 [0 a 0 0] 
r 22.082179243 _0_ MAC  --- 5 cbr 100 [0 0 a 800] ------- [10:0 0:0 30 0] [5] 1 0
r 22.082204243 _0_ AGT  --- 5 cbr 100 [0 0 a 800] ------- [10:0 0:0 30 0] [5] 1 0
s 22.085114194 _10_ RTR  --- 6 cbr 100 [0 0 0 0] ------- [10:0 0:0 30 0] [6] 0 0
s 22.087699194 _10_ MAC  --- 6 cbr 107 [0 0 a 800] ------- [10:0 0:0 30 0] [6] 0 0
s 22.091507243 _0_ MAC  --- 6 ACK 5 [0 a 0 0] 
r 22.091859291 _10_ MAC  --- 6 ACK 5 [0 a 0 0] 
r 22.092499243 _0_ MAC  --- 6 cbr 100 [0 0 a 800] ------- [10:0 0:0 30 0] [6] 1 0
r 22.092524243 _0_ AGT  --- 6 cbr 100 [0 0 a 800] ------- [10:0 0:0 30 0] [6] 1 0
s 22.095114194 _10_ RTR  --- 7 cbr 100 [0 0 0 0] ------- [10:0 0:0 30 0] [7] 0 0
s 22.097699194 _10_ MAC  --- 7 cbr 107 [0 0 a 800] ------- [10:0 0:0 30 0] [7] 0 0
s 22.101507242 _0_ MAC  --- 7 ACK 5 [0 a 0 0] 
r 22.101859291 _10_ MAC  --- 7 ACK 5 [0 a 0 0] 
r 22.102499242 _0_ MAC  --- 7 cbr 100 [0 0 a 800] ------- [10:0 0:0 30 0] [7] 1 0
r 22.102524242 _0_ AGT  --- 7 cbr 100 [0 0 a 800] ------- [10:0 0:0 30 0] [7] 1 0
s 22.105114194 _10_ RTR  --- 8 cbr 100 [0 0 0 0] ------- [10:0 0:0 30 0] [8] 0 0
s 22.107059194 _10_ MAC  --- 8 cbr 107 [0 0 a 800] ------- [10:0 0:0 30 0] [8] 0 0
s 22.110867242 _0_ MAC  --- 8 ACK 5 [0 a 0 0] 
r 22.111219291 _10_ MAC  --- 8 ACK 5 [0 a 0 0] 
r 22.111859242 _0_ MAC  --- 8 cbr 100 [0 0 a 800] ------- [10:0 0:0 30 0] [8] 1 0
r 22.111884242 _0_ AGT  --- 8 cbr 100 [0 0 a 800] ------- [10:0 0:0 30 0] [8] 1 0
s 22.115114194 _10_ RTR  --- 9 cbr 100 [0 0 0 0] ------- [10:0 0:0 30 0] [9] 0 0
s 22.115459194 _10_ MAC  --- 9 cbr 107 [0 0 a 800] ------- [10:0 0:0 30 0] [9] 0 0
s 22.119267242 _0_ MAC  --- 9 ACK 5 [0 a 0 0] 
r 22.119619291 _10_ MAC  --- 9 ACK 5 [0 a 0 0] 
r 22.120259242 _0_ MAC  --- 9 cbr 100 [0 0 a 800] ------- [10:0 0:0 30 0] [9] 1 0
r 22.120284242 _0_ AGT  --- 9 cbr 100 [0 0 a 800] ------- [10:0 0:0 30 0] [9] 1 0
s 22.125114194 _10_ RTR  --- 10 cbr 100 [0 0 0 0] ------- [10:0 0:0 30 0] [10] 0 0
s 22.127379194 _10_ MAC  --- 10 cbr 107 [0 0 a 800] ------- [10:0 0:0 30 0] [10] 0 0
s 22.131187242 _0_ MAC  --- 10 ACK 5 [0 a 0 0] 
r 22.131539291 _10_ MAC  --- 10 ACK 5 [0 a 0 0] 
r 22.132179242 _0_ MAC  --- 10 cbr 100 [0 0 a 800] ------- [10:0 0:0 30 0] [10] 1 0
r 22.132204242 _0_ AGT  --- 10 cbr 100 [0 0 a 800] ------- [10:0 0:0 30 0] [10] 1 0
s 22.200000000 _10_ AGT  --- 11 cbr 80 [0 0 0 0] ------- [10:0 0:0 32 0] [11] 0 0
r 22.200000000 _10_ RTR  --- 11 cbr 80 [0 0 0 0] ------- [10:0 0:0 32 0] [11] 0 0
s 22.200000000 _10_ RTR  --- 11 cbr 100 [0 0 0 0] ------- [10:0 0:0 30 0] [11] 0 0
s 22.201305000 _10_ MAC  --- 11 cbr 107 [0 0 a 800] ------- [10:0 0:0 30 0] [11] 0 0
s 22.205113048 _0_ MAC  --- 11 ACK 5 [0 a 0 0] 
r 22.205465096 _10_ MAC  --- 11 ACK 5 [0 a 0 0] 
r 22.206105048 _0_ MAC  --- 11 cbr 100 [0 0 a 800] ------- [10:0 0:0 30 0] [11] 1 0
r 22.206130048 _0_ AGT  --- 11 cbr 100 [0 0 a 800] ------- [10:0 0:0 30 0] [11] 1 0
s 22.400000000 _10_ AGT  --- 12 cbr 80 [0 0 0 0] ------- [10:0 0:0 32 0] [12] 0 0
r 22.400000000 _10_ RTR  --- 12 cbr 80 [0 0 0 0] ------- [10:0 0:0 32 0] [12] 0 0
s 22.400000000 _10_ RTR  --- 12 cbr 100 [0 0 0 0] ------- [10:0 0:0 30 0] [12] 0 0
s 22.401625000 _10_ MAC  --- 12 cbr 107 [0 0 a 800] ------- [10:0 0:0 30 0] [12] 0 0
s 22.405433048 _0_ MAC  --- 12 ACK 5 [0 a 0 0] 
r 22.405785096 _10_ MAC  --- 12 ACK 5 [0 a 0 0] 
r 22.406425048 _0_ MAC  --- 12 cbr 100 [0 0 a 800] ------- [10:0 0:0 30 0] [12] 1 0
r 22.406450048 _0_ AGT  --- 12 cbr 100 [0 0 a 800] ------- [10:0 0:0 30 0] [12] 1 0
s 22.600000000 _10_ AGT  --- 13 cbr 80 [0 0 0 0] ------- [10:0 0:0 32 0] [13] 0 0
r 22.600000000 _10_ RTR  --- 13 cbr 80 [0 0 0 0] ------- [10:0 0:0 32 0] [13] 0 0
s 22.600000000 _10_ RTR  --- 13 cbr 100 [0 0 0 0] ------- [10:0 0:0 30 0] [13] 0 0
s 22.602585000 _10_ MAC  --- 13 cbr 107 [0 0 a 800] ------- [10:0 0:0 30 0] [13] 0 0
s 22.606393047 _0_ MAC  --- 13 ACK 5 [0 a 0 0] 
r 22.606745095 _10_ MAC  --- 13 ACK 5 [0 a 0 0] 
r 22.607385047 _0_ MAC  --- 13 cbr 100 [0 0 a 800] ------- [10:0 0:0 30 0] [13] 1 0
r 22.607410047 _0_ AGT  --- 13 cbr 100 [0 0 a 800] ------- [10:0 0:0 30 0] [13] 1 0
s 22.800000000 _10_ AGT  --- 14 cbr 80 [0 0 0 0] ------- [10:0 0:0 32 0] [14] 0 0
r 22.800000000 _10_ RTR  --- 14 cbr 80 [0 0 0 0] ------- [10:0 0:0 32 0] [14] 0 0
s 22.800000000 _10_ RTR  --- 14 cbr 100 [0 0 0 0] ------- [10:0 0:0 30 0] [14] 0 0
s 22.800345000 _10_ MAC  --- 14 cbr 107 [0 0 a 800] ------- [10:0 0:0 30 0] [14] 0 0
s 22.804153047 _0_ MAC  --- 14 ACK 5 [0 a 0 0] 
r 22.804505094 _10_ MAC  --- 14 ACK 5 [0 a 0 0] 
r 22.805145047 _0_ MAC  --- 14 cbr 100 [0 0 a 800] ------- [10:0 0:0 30 0] [14] 1 0
r 22.805170047 _0_ AGT  --- 14 cbr 100 [0 0 a 800] ------- [10:0 0:0 30 0] [14] 1 0
s 23.000000000 _10_ AGT  --- 15 cbr 80 [0 0 0 0] ------- [10:0 0:0 32 0] [15] 0 0
r 23.000000000 _10_ RTR  --- 15 cbr 80 [0 0 0 0] ------- [10:0 0:0 32 0] [15] 0 0
s 23.000000000 _10_ RTR  --- 15 cbr 100 [0 0 0 0] ------- [10:0 0:0 30 0] [15] 0 0
s 23.002585000 _10_ MAC  --- 15 cbr 107 [0 0 a 800] ------- [10:0 0:0 30 0] [15] 0 0
s 23.006393047 _0_ MAC  --- 15 ACK 5 [0 a 0 0] 
r 23.006745093 _10_ MAC  --- 15 ACK 5 [0 a 0 0] 
r 23.007385047 _0_ MAC  --- 15 cbr 100 [0 0 a 800] ------- [10:0 0:0 30 0] [15] 1 0
r 23.007410047 _0_ AGT  --- 15 cbr 100 [0 0 a 800] ------- [10:0 0:0 30 0] [15] 1 0
s 23.200000000 _10_ AGT  --- 16 cbr 80 [0 0 0 0] ------- [10:0 0:0 32 0] [16] 0 0
r 23.200000000 _10_ RTR  --- 16 cbr 80 [0 0 0 0] ------- [10:0 0:0 32 0] [16] 0 0
s 23.200000000 _10_ RTR  --- 16 cbr 100 [0 0 0 0] ------- [10:0 0:0 30 0] [16] 0 0
s 23.201945000 _10_ MAC  --- 16 cbr 107 [0 0 a 800] ------- [10:0 0:0 30 0] [16] 0 0
s 23.205753046 _0_ MAC  --- 16 ACK 5 [0 a 0 0] 
r 23.206105093 _10_ MAC  --- 16 ACK 5 [0 a 0 0] 
r 23.206745046 _0_ MAC  --- 16 cbr 100 [0 0 a 800] ------- [10:0 0:0 30 0] [16] 1 0
r 23.206770046 _0_ AGT  --- 16 cbr 100 [0 0 a 800] ------- [10:0 0:0 30 0] [16] 1 0
s 23.400000000 _10_ AGT  --- 17 cbr 80 [0 0 0 0] ------- [10:0 0:0 32 0] [17] 0 0
r 23.400000000 _10_ RTR  --- 17 cbr 80 [0 0 0 0] ------- [10:0 0:0 32 0] [17] 0 0
s 23.400000000 _10_ RTR  --- 17 cbr 100 [0 0 0 0] ------- [10:0 0:0 30 0] [17] 0 0
s 23.401625000 _10_ MAC  --- 17 cbr 107 [0 0 a 800] ------- [10:0 0:0 30 0] [17] 0 0
s 23.405433046 _0_ MAC  --- 17 ACK 5 [0 a 0 0] 
r 23.405785092 _10_ MAC  --- 17 ACK 5 [0 a 0 0] 
r 23.406425046 _0_ MAC  --- 17 cbr 100 [0 0 a 800] ------- [10:0 0:0 30 0] [17] 1 0
r 23.406450046 _0_ AGT  --- 17 cbr 100 [0 0 a 800] ------- [10:0 0:0 30 0] [17] 1 0