# nam4wpan #
c -t * -i 32 -n tomato
c -t * -i 33 -n green
c -t * -i 34 -n navy
c -t * -i 35 -n blue
c -t * -i 35 -n green4
c -t * -i 35 -n red
n -t * -s 0  -x 30 -y 30 -Z 0 -z 4  -v circle -c black
n -t * -s 1  -x 30 -y 40 -Z 0 -z 4  -v circle -c black
n -t * -s 2  -x 23 -y 23 -Z 0 -z 4  -v circle -c black
n -t * -s 3  -x 38.5 -y 23 -Z 0 -z 4  -v circle -c black
n -t * -s 4  -x 23 -y 47 -Z 0 -z 4  -v circle -c black
n -t * -s 5  -x 37 -y 47 -Z 0 -z 4  -v circle -c black
n -t * -s 6  -x 16 -y 16 -Z 0 -z 4  -v circle -c black
n -t * -s 7  -x 16 -y 30 -Z 0 -z 4  -v circle -c black
n -t * -s 8  -x 46 -y 30 -Z 0 -z 4  -v circle -c black
n -t * -s 9  -x 46 -y 16 -Z 0 -z 4  -v circle -c black
n -t * -s 10  -x 30 -y 50 -Z 0 -z 4  -v circle -c black
V -t * -v 1.0a5 -a 0
W -t * -x 50 -y 50
A -t * -n 1 -p 0 -o 0x7fffffff -c 30 -a 1
A -t * -h 1 -m 1073741823 -s 0
v -t 0.000000000 -e set_rate_ext 100ms 1
n -t 0.000000000 -s 0 -S DLABEL -l "PAN Coor" -L ""
+ -t 0.000640000 -s 0 -d -1 -p CM7 -e 8 -c 2 -a 34 -i 0 -k MAC 
- -t 0.000640000 -s 0 -d -1 -p CM7 -e 8 -c 2 -a 34 -i 0 -k MAC
h -t 0.000640000 -s 0 -d -1 -p CM7 -e 8 -c 2 -a 34 -i 0 -k MAC -R 15.00 -D 0.00
r -t 0.001088033 -s 2 -d -1 -p CM7 -e 8 -c 2 -a 34 -i 0 -k MAC
r -t 0.001088033 -s 1 -d -1 -p CM7 -e 8 -c 2 -a 34 -i 0 -k MAC
r -t 0.001088037 -s 3 -d -1 -p CM7 -e 8 -c 2 -a 34 -i 0 -k MAC
r -t 0.001088047 -s 7 -d -1 -p CM7 -e 8 -c 2 -a 34 -i 0 -k MAC
+ -t 0.141760000 -s 0 -d -1 -p CM7 -e 8 -c 2 -a 34 -i 0 -k MAC 
- -t 0.141760000 -s 0 -d -1 -p CM7 -e 8 -c 2 -a 34 -i 0 -k MAC
h -t 0.141760000 -s 0 -d -1 -p CM7 -e 8 -c 2 -a 34 -i 0 -k MAC -R 15.00 -D 0.00
+ -t 0.282560000 -s 0 -d -1 -p CM7 -e 8 -c 2 -a 34 -i 0 -k MAC 
- -t 0.282560000 -s 0 -d -1 -p CM7 -e 8 -c 2 -a 34 -i 0 -k MAC
h -t 0.282560000 -s 0 -d -1 -p CM7 -e 8 -c 2 -a 34 -i 0 -k MAC -R 15.00 -D 0.00
n -t 0.421440001 -s 0 -S COLOR -c tomato -o black
n -t 0.451441001 -s 0 -S COLOR -c tomato -o tomato
n -t 0.500000001 -s 1 -S DLABEL -l "Coor1" -L ""
+ -t 0.502560000 -s 1 -d -1 -p CM7 -e 8 -c 2 -a 34 -i 0 -k MAC 
- -t 0.502560000 -s 1 -d -1 -p CM7 -e 8 -c 2 -a 34 -i 0 -k MAC
h -t 0.502560000 -s 1 -d -1 -p CM7 -e 8 -c 2 -a 34 -i 0 -k MAC -R 15.00 -D 0.00
r -t 0.503008033 -s 4 -d -1 -p CM7 -e 8 -c 2 -a 34 -i 0 -k MAC
r -t 0.503008033 -s 5 -d -1 -p CM7 -e 8 -c 2 -a 34 -i 0 -k MAC
r -t 0.503008033 -s 0 -d -1 -p CM7 -e 8 -c 2 -a 34 -i 0 -k MAC
r -t 0.503008033 -s 10 -d -1 -p CM7 -e 8 -c 2 -a 34 -i 0 -k MAC
+ -t 0.503648033 -s 0 -d 1 -p BCN -e 11 -c 2 -a 34 -i 0 -k MAC 
- -t 0.503648033 -s 0 -d 1 -p BCN -e 11 -c 2 -a 34 -i 0 -k MAC
h -t 0.503648033 -s 0 -d 1 -p BCN -e 11 -c 2 -a 34 -i 0 -k MAC
+ -t 0.766240000 -s 1 -d -1 -p CM7 -e 8 -c 2 -a 34 -i 0 -k MAC 
- -t 0.766240000 -s 1 -d -1 -p CM7 -e 8 -c 2 -a 34 -i 0 -k MAC
h -t 0.766240000 -s 1 -d -1 -p CM7 -e 8 -c 2 -a 34 -i 0 -k MAC -R 15.00 -D 0.00
+ -t 1.028960000 -s 1 -d -1 -p CM7 -e 8 -c 2 -a 34 -i 0 -k MAC 
- -t 1.028960000 -s 1 -d -1 -p CM7 -e 8 -c 2 -a 34 -i 0 -k MAC
h -t 1.028960000 -s 1 -d -1 -p CM7 -e 8 -c 2 -a 34 -i 0 -k MAC -R 15.00 -D 0.00
+ -t 1.292320000 -s 1 -d 0 -p ACRP -e 17 -c 2 -a 34 -i 0 -k MAC 
- -t 1.292320000 -s 1 -d 0 -p ACRP -e 17 -c 2 -a 34 -i 0 -k MAC
h -t 1.292320000 -s 1 -d 0 -p ACRP -e 17 -c 2 -a 34 -i 0 -k MAC
r -t 1.293056033 -s 0 -d 0 -p ACRP -e 17 -c 2 -a 34 -i 0 -k MAC
+ -t 1.293248033 -s 0 -d 1 -p ACK -e 5 -c 2 -a 34 -i 0 -k MAC 
- -t 1.293248033 -s 0 -d 1 -p ACK -e 5 -c 2 -a 34 -i 0 -k MAC
h -t 1.293248033 -s 0 -d 1 -p ACK -e 5 -c 2 -a 34 -i 0 -k MAC
r -t 1.293600067 -s 1 -d 1 -p ACK -e 5 -c 2 -a 34 -i 0 -k MAC
+ -t 1.785120067 -s 1 -d 0 -p CM4 -e 16 -c 2 -a 34 -i 0 -k MAC 
- -t 1.785120067 -s 1 -d 0 -p CM4 -e 16 -c 2 -a 34 -i 0 -k MAC
h -t 1.785120067 -s 1 -d 0 -p CM4 -e 16 -c 2 -a 34 -i 0 -k MAC
r -t 1.785824100 -s 0 -d 0 -p CM4 -e 16 -c 2 -a 34 -i 0 -k MAC
+ -t 1.786016100 -s 0 -d 1 -p ACK -e 5 -c 2 -a 34 -i 0 -k MAC 
- -t 1.786016100 -s 0 -d 1 -p ACK -e 5 -c 2 -a 34 -i 0 -k MAC
h -t 1.786016100 -s 0 -d 1 -p ACK -e 5 -c 2 -a 34 -i 0 -k MAC
r -t 1.786368133 -s 1 -d 1 -p ACK -e 5 -c 2 -a 34 -i 0 -k MAC
+ -t 1.786560100 -s 0 -d 1 -p CM2 -e 25 -c 2 -a 34 -i 0 -k MAC 
- -t 1.786560100 -s 0 -d 1 -p CM2 -e 25 -c 2 -a 34 -i 0 -k MAC
h -t 1.786560100 -s 0 -d 1 -p CM2 -e 25 -c 2 -a 34 -i 0 -k MAC
r -t 1.787552133 -s 1 -d 1 -p CM2 -e 25 -c 2 -a 34 -i 0 -k MAC
+ -t 1.787744133 -s 1 -d 0 -p ACK -e 5 -c 2 -a 34 -i 0 -k MAC 
- -t 1.787744133 -s 1 -d 0 -p ACK -e 5 -c 2 -a 34 -i 0 -k MAC
h -t 1.787744133 -s 1 -d 0 -p ACK -e 5 -c 2 -a 34 -i 0 -k MAC
r -t 1.788096167 -s 0 -d 0 -p ACK -e 5 -c 2 -a 34 -i 0 -k MAC
n -t 1.788736134 -s 1 -S COLOR -c blue -o black
n -t 1.788736134 -s 1 -S DLABEL -l [0] -L "Coor1"
n -t 1.800000001 -s 2 -S DLABEL -l "Coor2" -L ""
+ -t 1.801280000 -s 2 -d -1 -p CM7 -e 8 -c 2 -a 34 -i 0 -k MAC 
- -t 1.801280000 -s 2 -d -1 -p CM7 -e 8 -c 2 -a 34 -i 0 -k MAC
h -t 1.801280000 -s 2 -d -1 -p CM7 -e 8 -c 2 -a 34 -i 0 -k MAC -R 15.00 -D 0.00
r -t 1.801728033 -s 7 -d -1 -p CM7 -e 8 -c 2 -a 34 -i 0 -k MAC
r -t 1.801728033 -s 6 -d -1 -p CM7 -e 8 -c 2 -a 34 -i 0 -k MAC
r -t 1.801728033 -s 0 -d -1 -p CM7 -e 8 -c 2 -a 34 -i 0 -k MAC
+ -t 1.803008033 -s 0 -d 2 -p BCN -e 11 -c 2 -a 34 -i 0 -k MAC 
- -t 1.803008033 -s 0 -d 2 -p BCN -e 11 -c 2 -a 34 -i 0 -k MAC
h -t 1.803008033 -s 0 -d 2 -p BCN -e 11 -c 2 -a 34 -i 0 -k MAC
n -t 1.818737134 -s 1 -S COLOR -c blue -o blue
+ -t 2.064320000 -s 2 -d -1 -p CM7 -e 8 -c 2 -a 34 -i 0 -k MAC 
- -t 2.064320000 -s 2 -d -1 -p CM7 -e 8 -c 2 -a 34 -i 0 -k MAC
h -t 2.064320000 -s 2 -d -1 -p CM7 -e 8 -c 2 -a 34 -i 0 -k MAC -R 15.00 -D 0.00
+ -t 2.328000000 -s 2 -d -1 -p CM7 -e 8 -c 2 -a 34 -i 0 -k MAC 
- -t 2.328000000 -s 2 -d -1 -p CM7 -e 8 -c 2 -a 34 -i 0 -k MAC
h -t 2.328000000 -s 2 -d -1 -p CM7 -e 8 -c 2 -a 34 -i 0 -k MAC -R 15.00 -D 0.00
+ -t 2.591680000 -s 2 -d 0 -p ACRP -e 17 -c 2 -a 34 -i 0 -k MAC 
- -t 2.591680000 -s 2 -d 0 -p ACRP -e 17 -c 2 -a 34 -i 0 -k MAC
h -t 2.591680000 -s 2 -d 0 -p ACRP -e 17 -c 2 -a 34 -i 0 -k MAC
r -t 2.592416033 -s 0 -d 0 -p ACRP -e 17 -c 2 -a 34 -i 0 -k MAC
+ -t 2.592608033 -s 0 -d 2 -p ACK -e 5 -c 2 -a 34 -i 0 -k MAC 
- -t 2.592608033 -s 0 -d 2 -p ACK -e 5 -c 2 -a 34 -i 0 -k MAC
h -t 2.592608033 -s 0 -d 2 -p ACK -e 5 -c 2 -a 34 -i 0 -k MAC
r -t 2.592960066 -s 2 -d 2 -p ACK -e 5 -c 2 -a 34 -i 0 -k MAC
+ -t 3.084480066 -s 2 -d 0 -p CM4 -e 16 -c 2 -a 34 -i 0 -k MAC 
- -t 3.084480066 -s 2 -d 0 -p CM4 -e 16 -c 2 -a 34 -i 0 -k MAC
h -t 3.084480066 -s 2 -d 0 -p CM4 -e 16 -c 2 -a 34 -i 0 -k MAC
r -t 3.085184099 -s 0 -d 0 -p CM4 -e 16 -c 2 -a 34 -i 0 -k MAC
+ -t 3.085376099 -s 0 -d 2 -p ACK -e 5 -c 2 -a 34 -i 0 -k MAC 
- -t 3.085376099 -s 0 -d 2 -p ACK -e 5 -c 2 -a 34 -i 0 -k MAC
h -t 3.085376099 -s 0 -d 2 -p ACK -e 5 -c 2 -a 34 -i 0 -k MAC
r -t 3.085728132 -s 2 -d 2 -p ACK -e 5 -c 2 -a 34 -i 0 -k MAC
+ -t 3.085920099 -s 0 -d 2 -p CM2 -e 25 -c 2 -a 34 -i 0 -k MAC 
- -t 3.085920099 -s 0 -d 2 -p CM2 -e 25 -c 2 -a 34 -i 0 -k MAC
h -t 3.085920099 -s 0 -d 2 -p CM2 -e 25 -c 2 -a 34 -i 0 -k MAC
r -t 3.086912132 -s 2 -d 2 -p CM2 -e 25 -c 2 -a 34 -i 0 -k MAC
+ -t 3.087104132 -s 2 -d 0 -p ACK -e 5 -c 2 -a 34 -i 0 -k MAC 
- -t 3.087104132 -s 2 -d 0 -p ACK -e 5 -c 2 -a 34 -i 0 -k MAC
h -t 3.087104132 -s 2 -d 0 -p ACK -e 5 -c 2 -a 34 -i 0 -k MAC
r -t 3.087456165 -s 0 -d 0 -p ACK -e 5 -c 2 -a 34 -i 0 -k MAC
n -t 3.088096133 -s 2 -S COLOR -c blue -o black
n -t 3.088096133 -s 2 -S DLABEL -l [0] -L "Coor2"
n -t 3.100000001 -s 3 -S DLABEL -l "Coor3" -L ""
+ -t 3.101280000 -s 3 -d -1 -p CM7 -e 8 -c 2 -a 34 -i 0 -k MAC 
- -t 3.101280000 -s 3 -d -1 -p CM7 -e 8 -c 2 -a 34 -i 0 -k MAC
h -t 3.101280000 -s 3 -d -1 -p CM7 -e 8 -c 2 -a 34 -i 0 -k MAC -R 15.00 -D 0.00
r -t 3.101728034 -s 8 -d -1 -p CM7 -e 8 -c 2 -a 34 -i 0 -k MAC
r -t 3.101728034 -s 9 -d -1 -p CM7 -e 8 -c 2 -a 34 -i 0 -k MAC
r -t 3.101728037 -s 0 -d -1 -p CM7 -e 8 -c 2 -a 34 -i 0 -k MAC
+ -t 3.103328037 -s 0 -d 3 -p BCN -e 11 -c 2 -a 34 -i 0 -k MAC 
- -t 3.103328037 -s 0 -d 3 -p BCN -e 11 -c 2 -a 34 -i 0 -k MAC
h -t 3.103328037 -s 0 -d 3 -p BCN -e 11 -c 2 -a 34 -i 0 -k MAC
n -t 3.118097133 -s 2 -S COLOR -c blue -o blue
+ -t 3.363680000 -s 3 -d -1 -p CM7 -e 8 -c 2 -a 34 -i 0 -k MAC 
- -t 3.363680000 -s 3 -d -1 -p CM7 -e 8 -c 2 -a 34 -i 0 -k MAC
h -t 3.363680000 -s 3 -d -1 -p CM7 -e 8 -c 2 -a 34 -i 0 -k MAC -R 15.00 -D 0.00
+ -t 3.625760000 -s 3 -d -1 -p CM7 -e 8 -c 2 -a 34 -i 0 -k MAC 
- -t 3.625760000 -s 3 -d -1 -p CM7 -e 8 -c 2 -a 34 -i 0 -k MAC
h -t 3.625760000 -s 3 -d -1 -p CM7 -e 8 -c 2 -a 34 -i 0 -k MAC -R 15.00 -D 0.00
+ -t 3.890080000 -s 3 -d 0 -p ACRP -e 17 -c 2 -a 34 -i 0 -k MAC 
- -t 3.890080000 -s 3 -d 0 -p ACRP -e 17 -c 2 -a 34 -i 0 -k MAC
h -t 3.890080000 -s 3 -d 0 -p ACRP -e 17 -c 2 -a 34 -i 0 -k MAC
r -t 3.890816037 -s 0 -d 0 -p ACRP -e 17 -c 2 -a 34 -i 0 -k MAC
+ -t 3.891008037 -s 0 -d 3 -p ACK -e 5 -c 2 -a 34 -i 0 -k MAC 
- -t 3.891008037 -s 0 -d 3 -p ACK -e 5 -c 2 -a 34 -i 0 -k MAC
h -t 3.891008037 -s 0 -d 3 -p ACK -e 5 -c 2 -a 34 -i 0 -k MAC
r -t 3.891360073 -s 3 -d 3 -p ACK -e 5 -c 2 -a 34 -i 0 -k MAC
+ -t 4.382880073 -s 3 -d 0 -p CM4 -e 16 -c 2 -a 34 -i 0 -k MAC 
- -t 4.382880073 -s 3 -d 0 -p CM4 -e 16 -c 2 -a 34 -i 0 -k MAC
h -t 4.382880073 -s 3 -d 0 -p CM4 -e 16 -c 2 -a 34 -i 0 -k MAC
r -t 4.383584110 -s 0 -d 0 -p CM4 -e 16 -c 2 -a 34 -i 0 -k MAC
+ -t 4.383776110 -s 0 -d 3 -p ACK -e 5 -c 2 -a 34 -i 0 -k MAC 
- -t 4.383776110 -s 0 -d 3 -p ACK -e 5 -c 2 -a 34 -i 0 -k MAC
h -t 4.383776110 -s 0 -d 3 -p ACK -e 5 -c 2 -a 34 -i 0 -k MAC
r -t 4.384128147 -s 3 -d 3 -p ACK -e 5 -c 2 -a 34 -i 0 -k MAC
+ -t 4.384320110 -s 0 -d 3 -p CM2 -e 25 -c 2 -a 34 -i 0 -k MAC 
- -t 4.384320110 -s 0 -d 3 -p CM2 -e 25 -c 2 -a 34 -i 0 -k MAC
h -t 4.384320110 -s 0 -d 3 -p CM2 -e 25 -c 2 -a 34 -i 0 -k MAC
r -t 4.385312147 -s 3 -d 3 -p CM2 -e 25 -c 2 -a 34 -i 0 -k MAC
+ -t 4.385504147 -s 3 -d 0 -p ACK -e 5 -c 2 -a 34 -i 0 -k MAC 
- -t 4.385504147 -s 3 -d 0 -p ACK -e 5 -c 2 -a 34 -i 0 -k MAC
h -t 4.385504147 -s 3 -d 0 -p ACK -e 5 -c 2 -a 34 -i 0 -k MAC
r -t 4.385856184 -s 0 -d 0 -p ACK -e 5 -c 2 -a 34 -i 0 -k MAC
n -t 4.386496148 -s 3 -S COLOR -c blue -o black
n -t 4.386496148 -s 3 -S DLABEL -l [0] -L "Coor3"
n -t 4.400000001 -s 4 -S DLABEL -l "Dev" -L ""
+ -t 4.400640000 -s 4 -d -1 -p CM7 -e 8 -c 2 -a 34 -i 0 -k MAC 
- -t 4.400640000 -s 4 -d -1 -p CM7 -e 8 -c 2 -a 34 -i 0 -k MAC
h -t 4.400640000 -s 4 -d -1 -p CM7 -e 8 -c 2 -a 34 -i 0 -k MAC -R 15.00 -D 0.00
r -t 4.401088025 -s 10 -d -1 -p CM7 -e 8 -c 2 -a 34 -i 0 -k MAC
r -t 4.401088033 -s 1 -d -1 -p CM7 -e 8 -c 2 -a 34 -i 0 -k MAC
r -t 4.401088047 -s 5 -d -1 -p CM7 -e 8 -c 2 -a 34 -i 0 -k MAC
+ -t 4.403648033 -s 1 -d 4 -p BCN -e 11 -c 2 -a 34 -i 0 -k MAC 
- -t 4.403648033 -s 1 -d 4 -p BCN -e 11 -c 2 -a 34 -i 0 -k MAC
h -t 4.403648033 -s 1 -d 4 -p BCN -e 11 -c 2 -a 34 -i 0 -k MAC
n -t 4.416497148 -s 3 -S COLOR -c blue -o blue
+ -t 4.663360000 -s 4 -d -1 -p CM7 -e 8 -c 2 -a 34 -i 0 -k MAC 
- -t 4.663360000 -s 4 -d -1 -p CM7 -e 8 -c 2 -a 34 -i 0 -k MAC
h -t 4.663360000 -s 4 -d -1 -p CM7 -e 8 -c 2 -a 34 -i 0 -k MAC -R 15.00 -D 0.00
+ -t 4.927680000 -s 4 -d -1 -p CM7 -e 8 -c 2 -a 34 -i 0 -k MAC 
- -t 4.927680000 -s 4 -d -1 -p CM7 -e 8 -c 2 -a 34 -i 0 -k MAC
h -t 4.927680000 -s 4 -d -1 -p CM7 -e 8 -c 2 -a 34 -i 0 -k MAC -R 15.00 -D 0.00
+ -t 5.190080000 -s 4 -d 1 -p ACRP -e 17 -c 2 -a 34 -i 0 -k MAC 
- -t 5.190080000 -s 4 -d 1 -p ACRP -e 17 -c 2 -a 34 -i 0 -k MAC
h -t 5.190080000 -s 4 -d 1 -p ACRP -e 17 -c 2 -a 34 -i 0 -k MAC
r -t 5.190816033 -s 1 -d 1 -p ACRP -e 17 -c 2 -a 34 -i 0 -k MAC
+ -t 5.191008033 -s 1 -d 4 -p ACK -e 5 -c 2 -a 34 -i 0 -k MAC 
- -t 5.191008033 -s 1 -d 4 -p ACK -e 5 -c 2 -a 34 -i 0 -k MAC
h -t 5.191008033 -s 1 -d 4 -p ACK -e 5 -c 2 -a 34 -i 0 -k MAC
r -t 5.191360066 -s 4 -d 4 -p ACK -e 5 -c 2 -a 34 -i 0 -k MAC
+ -t 5.682880066 -s 4 -d 1 -p CM4 -e 16 -c 2 -a 34 -i 0 -k MAC 
- -t 5.682880066 -s 4 -d 1 -p CM4 -e 16 -c 2 -a 34 -i 0 -k MAC
h -t 5.682880066 -s 4 -d 1 -p CM4 -e 16 -c 2 -a 34 -i 0 -k MAC
r -t 5.683584099 -s 1 -d 1 -p CM4 -e 16 -c 2 -a 34 -i 0 -k MAC
+ -t 5.683776099 -s 1 -d 4 -p ACK -e 5 -c 2 -a 34 -i 0 -k MAC 
- -t 5.683776099 -s 1 -d 4 -p ACK -e 5 -c 2 -a 34 -i 0 -k MAC
h -t 5.683776099 -s 1 -d 4 -p ACK -e 5 -c 2 -a 34 -i 0 -k MAC
r -t 5.684128132 -s 4 -d 4 -p ACK -e 5 -c 2 -a 34 -i 0 -k MAC
+ -t 5.684320099 -s 1 -d 4 -p CM2 -e 25 -c 2 -a 34 -i 0 -k MAC 
- -t 5.684320099 -s 1 -d 4 -p CM2 -e 25 -c 2 -a 34 -i 0 -k MAC
h -t 5.684320099 -s 1 -d 4 -p CM2 -e 25 -c 2 -a 34 -i 0 -k MAC
r -t 5.685312132 -s 4 -d 4 -p CM2 -e 25 -c 2 -a 34 -i 0 -k MAC
+ -t 5.685504132 -s 4 -d 1 -p ACK -e 5 -c 2 -a 34 -i 0 -k MAC 
- -t 5.685504132 -s 4 -d 1 -p ACK -e 5 -c 2 -a 34 -i 0 -k MAC
h -t 5.685504132 -s 4 -d 1 -p ACK -e 5 -c 2 -a 34 -i 0 -k MAC
r -t 5.685856165 -s 1 -d 1 -p ACK -e 5 -c 2 -a 34 -i 0 -k MAC
n -t 5.686496133 -s 4 -S COLOR -c green3 -o black
n -t 5.686496133 -s 4 -S DLABEL -l [1] -L "Dev"
n -t 5.700000001 -s 5 -S DLABEL -l "Dev" -L ""
+ -t 5.700640000 -s 5 -d -1 -p CM7 -e 8 -c 2 -a 34 -i 0 -k MAC 
- -t 5.700640000 -s 5 -d -1 -p CM7 -e 8 -c 2 -a 34 -i 0 -k MAC
h -t 5.700640000 -s 5 -d -1 -p CM7 -e 8 -c 2 -a 34 -i 0 -k MAC -R 15.00 -D 0.00
r -t 5.701088025 -s 10 -d -1 -p CM7 -e 8 -c 2 -a 34 -i 0 -k MAC
r -t 5.701088033 -s 1 -d -1 -p CM7 -e 8 -c 2 -a 34 -i 0 -k MAC
r -t 5.701088047 -s 4 -d -1 -p CM7 -e 8 -c 2 -a 34 -i 0 -k MAC
+ -t 5.702688033 -s 1 -d 5 -p BCN -e 11 -c 2 -a 34 -i 0 -k MAC 
- -t 5.702688033 -s 1 -d 5 -p BCN -e 11 -c 2 -a 34 -i 0 -k MAC
h -t 5.702688033 -s 1 -d 5 -p BCN -e 11 -c 2 -a 34 -i 0 -k MAC
n -t 5.716497133 -s 4 -S COLOR -c green3 -o green3
+ -t 5.962720000 -s 5 -d -1 -p CM7 -e 8 -c 2 -a 34 -i 0 -k MAC 
- -t 5.962720000 -s 5 -d -1 -p CM7 -e 8 -c 2 -a 34 -i 0 -k MAC
h -t 5.962720000 -s 5 -d -1 -p CM7 -e 8 -c 2 -a 34 -i 0 -k MAC -R 15.00 -D 0.00
+ -t 6.226400000 -s 5 -d -1 -p CM7 -e 8 -c 2 -a 34 -i 0 -k MAC 
- -t 6.226400000 -s 5 -d -1 -p CM7 -e 8 -c 2 -a 34 -i 0 -k MAC
h -t 6.226400000 -s 5 -d -1 -p CM7 -e 8 -c 2 -a 34 -i 0 -k MAC -R 15.00 -D 0.00
+ -t 6.489760000 -s 5 -d 1 -p ACRP -e 17 -c 2 -a 34 -i 0 -k MAC 
- -t 6.489760000 -s 5 -d 1 -p ACRP -e 17 -c 2 -a 34 -i 0 -k MAC
h -t 6.489760000 -s 5 -d 1 -p ACRP -e 17 -c 2 -a 34 -i 0 -k MAC
r -t 6.490496033 -s 1 -d 1 -p ACRP -e 17 -c 2 -a 34 -i 0 -k MAC
+ -t 6.490688033 -s 1 -d 5 -p ACK -e 5 -c 2 -a 34 -i 0 -k MAC 
- -t 6.490688033 -s 1 -d 5 -p ACK -e 5 -c 2 -a 34 -i 0 -k MAC
h -t 6.490688033 -s 1 -d 5 -p ACK -e 5 -c 2 -a 34 -i 0 -k MAC
r -t 6.491040066 -s 5 -d 5 -p ACK -e 5 -c 2 -a 34 -i 0 -k MAC
+ -t 6.982560066 -s 5 -d 1 -p CM4 -e 16 -c 2 -a 34 -i 0 -k MAC 
- -t 6.982560066 -s 5 -d 1 -p CM4 -e 16 -c 2 -a 34 -i 0 -k MAC
h -t 6.982560066 -s 5 -d 1 -p CM4 -e 16 -c 2 -a 34 -i 0 -k MAC
r -t 6.983264099 -s 1 -d 1 -p CM4 -e 16 -c 2 -a 34 -i 0 -k MAC
+ -t 6.983456099 -s 1 -d 5 -p ACK -e 5 -c 2 -a 34 -i 0 -k MAC 
- -t 6.983456099 -s 1 -d 5 -p ACK -e 5 -c 2 -a 34 -i 0 -k MAC
h -t 6.983456099 -s 1 -d 5 -p ACK -e 5 -c 2 -a 34 -i 0 -k MAC
r -t 6.983808132 -s 5 -d 5 -p ACK -e 5 -c 2 -a 34 -i 0 -k MAC
+ -t 6.984000099 -s 1 -d 5 -p CM2 -e 25 -c 2 -a 34 -i 0 -k MAC 
- -t 6.984000099 -s 1 -d 5 -p CM2 -e 25 -c 2 -a 34 -i 0 -k MAC
h -t 6.984000099 -s 1 -d 5 -p CM2 -e 25 -c 2 -a 34 -i 0 -k MAC
r -t 6.984992132 -s 5 -d 5 -p CM2 -e 25 -c 2 -a 34 -i 0 -k MAC
+ -t 6.985184132 -s 5 -d 1 -p ACK -e 5 -c 2 -a 34 -i 0 -k MAC 
- -t 6.985184132 -s 5 -d 1 -p ACK -e 5 -c 2 -a 34 -i 0 -k MAC
h -t 6.985184132 -s 5 -d 1 -p ACK -e 5 -c 2 -a 34 -i 0 -k MAC
r -t 6.985536165 -s 1 -d 1 -p ACK -e 5 -c 2 -a 34 -i 0 -k MAC
n -t 6.986176133 -s 5 -S COLOR -c green3 -o black
n -t 6.986176133 -s 5 -S DLABEL -l [1] -L "Dev"
n -t 7.000000001 -s 6 -S DLABEL -l "Dev" -L ""
+ -t 7.000640000 -s 6 -d -1 -p CM7 -e 8 -c 2 -a 34 -i 0 -k MAC 
- -t 7.000640000 -s 6 -d -1 -p CM7 -e 8 -c 2 -a 34 -i 0 -k MAC
h -t 7.000640000 -s 6 -d -1 -p CM7 -e 8 -c 2 -a 34 -i 0 -k MAC -R 15.00 -D 0.00
r -t 7.001088033 -s 2 -d -1 -p CM7 -e 8 -c 2 -a 34 -i 0 -k MAC
r -t 7.001088047 -s 7 -d -1 -p CM7 -e 8 -c 2 -a 34 -i 0 -k MAC
+ -t 7.001728033 -s 2 -d 6 -p BCN -e 11 -c 2 -a 34 -i 0 -k MAC 
- -t 7.001728033 -s 2 -d 6 -p BCN -e 11 -c 2 -a 34 -i 0 -k MAC
h -t 7.001728033 -s 2 -d 6 -p BCN -e 11 -c 2 -a 34 -i 0 -k MAC
n -t 7.016177133 -s 5 -S COLOR -c green3 -o green3
+ -t 7.263680000 -s 6 -d -1 -p CM7 -e 8 -c 2 -a 34 -i 0 -k MAC 
- -t 7.263680000 -s 6 -d -1 -p CM7 -e 8 -c 2 -a 34 -i 0 -k MAC
h -t 7.263680000 -s 6 -d -1 -p CM7 -e 8 -c 2 -a 34 -i 0 -k MAC -R 15.00 -D 0.00
+ -t 7.526400000 -s 6 -d -1 -p CM7 -e 8 -c 2 -a 34 -i 0 -k MAC 
- -t 7.526400000 -s 6 -d -1 -p CM7 -e 8 -c 2 -a 34 -i 0 -k MAC
h -t 7.526400000 -s 6 -d -1 -p CM7 -e 8 -c 2 -a 34 -i 0 -k MAC -R 15.00 -D 0.00
+ -t 7.790400000 -s 6 -d 2 -p ACRP -e 17 -c 2 -a 34 -i 0 -k MAC 
- -t 7.790400000 -s 6 -d 2 -p ACRP -e 17 -c 2 -a 34 -i 0 -k MAC
h -t 7.790400000 -s 6 -d 2 -p ACRP -e 17 -c 2 -a 34 -i 0 -k MAC
r -t 7.791136033 -s 2 -d 2 -p ACRP -e 17 -c 2 -a 34 -i 0 -k MAC
+ -t 7.791328033 -s 2 -d 6 -p ACK -e 5 -c 2 -a 34 -i 0 -k MAC 
- -t 7.791328033 -s 2 -d 6 -p ACK -e 5 -c 2 -a 34 -i 0 -k MAC
h -t 7.791328033 -s 2 -d 6 -p ACK -e 5 -c 2 -a 34 -i 0 -k MAC
r -t 7.791680066 -s 6 -d 6 -p ACK -e 5 -c 2 -a 34 -i 0 -k MAC
+ -t 8.283200066 -s 6 -d 2 -p CM4 -e 16 -c 2 -a 34 -i 0 -k MAC 
- -t 8.283200066 -s 6 -d 2 -p CM4 -e 16 -c 2 -a 34 -i 0 -k MAC
h -t 8.283200066 -s 6 -d 2 -p CM4 -e 16 -c 2 -a 34 -i 0 -k MAC
r -t 8.283904099 -s 2 -d 2 -p CM4 -e 16 -c 2 -a 34 -i 0 -k MAC
+ -t 8.284096099 -s 2 -d 6 -p ACK -e 5 -c 2 -a 34 -i 0 -k MAC 
- -t 8.284096099 -s 2 -d 6 -p ACK -e 5 -c 2 -a 34 -i 0 -k MAC
h -t 8.284096099 -s 2 -d 6 -p ACK -e 5 -c 2 -a 34 -i 0 -k MAC
r -t 8.284448132 -s 6 -d 6 -p ACK -e 5 -c 2 -a 34 -i 0 -k MAC
+ -t 8.284640099 -s 2 -d 6 -p CM2 -e 25 -c 2 -a 34 -i 0 -k MAC 
- -t 8.284640099 -s 2 -d 6 -p CM2 -e 25 -c 2 -a 34 -i 0 -k MAC
h -t 8.284640099 -s 2 -d 6 -p CM2 -e 25 -c 2 -a 34 -i 0 -k MAC
r -t 8.285632132 -s 6 -d 6 -p CM2 -e 25 -c 2 -a 34 -i 0 -k MAC
+ -t 8.285824132 -s 6 -d 2 -p ACK -e 5 -c 2 -a 34 -i 0 -k MAC 
- -t 8.285824132 -s 6 -d 2 -p ACK -e 5 -c 2 -a 34 -i 0 -k MAC
h -t 8.285824132 -s 6 -d 2 -p ACK -e 5 -c 2 -a 34 -i 0 -k MAC
r -t 8.286176165 -s 2 -d 2 -p ACK -e 5 -c 2 -a 34 -i 0 -k MAC
n -t 8.286816133 -s 6 -S COLOR -c green3 -o black
n -t 8.286816133 -s 6 -S DLABEL -l [2] -L "Dev"
n -t 8.300000001 -s 7 -S DLABEL -l "Dev" -L ""
+ -t 8.301920000 -s 7 -d -1 -p CM7 -e 8 -c 2 -a 34 -i 0 -k MAC 
- -t 8.301920000 -s 7 -d -1 -p CM7 -e 8 -c 2 -a 34 -i 0 -k MAC
h -t 8.301920000 -s 7 -d -1 -p CM7 -e 8 -c 2 -a 34 -i 0 -k MAC -R 15.00 -D 0.00
r -t 8.302368033 -s 2 -d -1 -p CM7 -e 8 -c 2 -a 34 -i 0 -k MAC
r -t 8.302368047 -s 6 -d -1 -p CM7 -e 8 -c 2 -a 34 -i 0 -k MAC
r -t 8.302368047 -s 0 -d -1 -p CM7 -e 8 -c 2 -a 34 -i 0 -k MAC
+ -t 8.304288033 -s 2 -d 7 -p BCN -e 11 -c 2 -a 34 -i 0 -k MAC 
- -t 8.304288033 -s 2 -d 7 -p BCN -e 11 -c 2 -a 34 -i 0 -k MAC
h -t 8.304288033 -s 2 -d 7 -p BCN -e 11 -c 2 -a 34 -i 0 -k MAC
+ -t 8.312224047 -s 0 -d 7 -p BCN -e 11 -c 2 -a 34 -i 0 -k MAC 
- -t 8.312224047 -s 0 -d 7 -p BCN -e 11 -c 2 -a 34 -i 0 -k MAC
h -t 8.312224047 -s 0 -d 7 -p BCN -e 11 -c 2 -a 34 -i 0 -k MAC
n -t 8.316817133 -s 6 -S COLOR -c green3 -o green3
+ -t 8.564960000 -s 7 -d -1 -p CM7 -e 8 -c 2 -a 34 -i 0 -k MAC 
- -t 8.564960000 -s 7 -d -1 -p CM7 -e 8 -c 2 -a 34 -i 0 -k MAC
h -t 8.564960000 -s 7 -d -1 -p CM7 -e 8 -c 2 -a 34 -i 0 -k MAC -R 15.00 -D 0.00
+ -t 8.828320000 -s 7 -d -1 -p CM7 -e 8 -c 2 -a 34 -i 0 -k MAC 
- -t 8.828320000 -s 7 -d -1 -p CM7 -e 8 -c 2 -a 34 -i 0 -k MAC
h -t 8.828320000 -s 7 -d -1 -p CM7 -e 8 -c 2 -a 34 -i 0 -k MAC -R 15.00 -D 0.00
+ -t 9.090720000 -s 7 -d 2 -p ACRP -e 17 -c 2 -a 34 -i 0 -k MAC 
- -t 9.090720000 -s 7 -d 2 -p ACRP -e 17 -c 2 -a 34 -i 0 -k MAC
h -t 9.090720000 -s 7 -d 2 -p ACRP -e 17 -c 2 -a 34 -i 0 -k MAC
r -t 9.091456033 -s 2 -d 2 -p ACRP -e 17 -c 2 -a 34 -i 0 -k MAC
+ -t 9.091648033 -s 2 -d 7 -p ACK -e 5 -c 2 -a 34 -i 0 -k MAC 
- -t 9.091648033 -s 2 -d 7 -p ACK -e 5 -c 2 -a 34 -i 0 -k MAC
h -t 9.091648033 -s 2 -d 7 -p ACK -e 5 -c 2 -a 34 -i 0 -k MAC
r -t 9.092000066 -s 7 -d 7 -p ACK -e 5 -c 2 -a 34 -i 0 -k MAC
+ -t 9.583520066 -s 7 -d 2 -p CM4 -e 16 -c 2 -a 34 -i 0 -k MAC 
- -t 9.583520066 -s 7 -d 2 -p CM4 -e 16 -c 2 -a 34 -i 0 -k MAC
h -t 9.583520066 -s 7 -d 2 -p CM4 -e 16 -c 2 -a 34 -i 0 -k MAC
r -t 9.584224099 -s 2 -d 2 -p CM4 -e 16 -c 2 -a 34 -i 0 -k MAC
+ -t 9.584416099 -s 2 -d 7 -p ACK -e 5 -c 2 -a 34 -i 0 -k MAC 
- -t 9.584416099 -s 2 -d 7 -p ACK -e 5 -c 2 -a 34 -i 0 -k MAC
h -t 9.584416099 -s 2 -d 7 -p ACK -e 5 -c 2 -a 34 -i 0 -k MAC
r -t 9.584768132 -s 7 -d 7 -p ACK -e 5 -c 2 -a 34 -i 0 -k MAC
+ -t 9.584960099 -s 2 -d 7 -p CM2 -e 25 -c 2 -a 34 -i 0 -k MAC 
- -t 9.584960099 -s 2 -d 7 -p CM2 -e 25 -c 2 -a 34 -i 0 -k MAC
h -t 9.584960099 -s 2 -d 7 -p CM2 -e 25 -c 2 -a 34 -i 0 -k MAC
r -t 9.585952132 -s 7 -d 7 -p CM2 -e 25 -c 2 -a 34 -i 0 -k MAC
+ -t 9.586144132 -s 7 -d 2 -p ACK -e 5 -c 2 -a 34 -i 0 -k MAC 
- -t 9.586144132 -s 7 -d 2 -p ACK -e 5 -c 2 -a 34 -i 0 -k MAC
h -t 9.586144132 -s 7 -d 2 -p ACK -e 5 -c 2 -a 34 -i 0 -k MAC
r -t 9.586496165 -s 2 -d 2 -p ACK -e 5 -c 2 -a 34 -i 0 -k MAC
n -t 9.587136133 -s 7 -S COLOR -c green3 -o black
n -t 9.587136133 -s 7 -S DLABEL -l [2] -L "Dev"
n -t 9.600000001 -s 8 -S DLABEL -l "Dev" -L ""
+ -t 9.601920000 -s 8 -d -1 -p CM7 -e 8 -c 2 -a 34 -i 0 -k MAC 
- -t 9.601920000 -s 8 -d -1 -p CM7 -e 8 -c 2 -a 34 -i 0 -k MAC
h -t 9.601920000 -s 8 -d -1 -p CM7 -e 8 -c 2 -a 34 -i 0 -k MAC -R 15.00 -D 0.00
r -t 9.602368034 -s 3 -d -1 -p CM7 -e 8 -c 2 -a 34 -i 0 -k MAC
r -t 9.602368047 -s 9 -d -1 -p CM7 -e 8 -c 2 -a 34 -i 0 -k MAC
+ -t 9.604928034 -s 3 -d 8 -p BCN -e 11 -c 2 -a 34 -i 0 -k MAC 
- -t 9.604928034 -s 3 -d 8 -p BCN -e 11 -c 2 -a 34 -i 0 -k MAC
h -t 9.604928034 -s 3 -d 8 -p BCN -e 11 -c 2 -a 34 -i 0 -k MAC
n -t 9.617137133 -s 7 -S COLOR -c green3 -o green3
+ -t 9.865280000 -s 8 -d -1 -p CM7 -e 8 -c 2 -a 34 -i 0 -k MAC 
- -t 9.865280000 -s 8 -d -1 -p CM7 -e 8 -c 2 -a 34 -i 0 -k MAC
h -t 9.865280000 -s 8 -d -1 -p CM7 -e 8 -c 2 -a 34 -i 0 -k MAC -R 15.00 -D 0.00
+ -t 10.128320000 -s 8 -d -1 -p CM7 -e 8 -c 2 -a 34 -i 0 -k MAC 
- -t 10.128320000 -s 8 -d -1 -p CM7 -e 8 -c 2 -a 34 -i 0 -k MAC
h -t 10.128320000 -s 8 -d -1 -p CM7 -e 8 -c 2 -a 34 -i 0 -k MAC -R 15.00 -D 0.00
+ -t 10.392000000 -s 8 -d 3 -p ACRP -e 17 -c 2 -a 34 -i 0 -k MAC 
- -t 10.392000000 -s 8 -d 3 -p ACRP -e 17 -c 2 -a 34 -i 0 -k MAC
h -t 10.392000000 -s 8 -d 3 -p ACRP -e 17 -c 2 -a 34 -i 0 -k MAC
r -t 10.392736034 -s 3 -d 3 -p ACRP -e 17 -c 2 -a 34 -i 0 -k MAC
+ -t 10.392928034 -s 3 -d 8 -p ACK -e 5 -c 2 -a 34 -i 0 -k MAC 
- -t 10.392928034 -s 3 -d 8 -p ACK -e 5 -c 2 -a 34 -i 0 -k MAC
h -t 10.392928034 -s 3 -d 8 -p ACK -e 5 -c 2 -a 34 -i 0 -k MAC
r -t 10.393280068 -s 8 -d 8 -p ACK -e 5 -c 2 -a 34 -i 0 -k MAC
+ -t 10.884800068 -s 8 -d 3 -p CM4 -e 16 -c 2 -a 34 -i 0 -k MAC 
- -t 10.884800068 -s 8 -d 3 -p CM4 -e 16 -c 2 -a 34 -i 0 -k MAC
h -t 10.884800068 -s 8 -d 3 -p CM4 -e 16 -c 2 -a 34 -i 0 -k MAC
r -t 10.885504103 -s 3 -d 3 -p CM4 -e 16 -c 2 -a 34 -i 0 -k MAC
+ -t 10.885696103 -s 3 -d 8 -p ACK -e 5 -c 2 -a 34 -i 0 -k MAC 
- -t 10.885696103 -s 3 -d 8 -p ACK -e 5 -c 2 -a 34 -i 0 -k MAC
h -t 10.885696103 -s 3 -d 8 -p ACK -e 5 -c 2 -a 34 -i 0 -k MAC
r -t 10.886048137 -s 8 -d 8 -p ACK -e 5 -c 2 -a 34 -i 0 -k MAC
+ -t 10.886240103 -s 3 -d 8 -p CM2 -e 25 -c 2 -a 34 -i 0 -k MAC 
- -t 10.886240103 -s 3 -d 8 -p CM2 -e 25 -c 2 -a 34 -i 0 -k MAC
h -t 10.886240103 -s 3 -d 8 -p CM2 -e 25 -c 2 -a 34 -i 0 -k MAC
r -t 10.887232137 -s 8 -d 8 -p CM2 -e 25 -c 2 -a 34 -i 0 -k MAC
+ -t 10.887424137 -s 8 -d 3 -p ACK -e 5 -c 2 -a 34 -i 0 -k MAC 
- -t 10.887424137 -s 8 -d 3 -p ACK -e 5 -c 2 -a 34 -i 0 -k MAC
h -t 10.887424137 -s 8 -d 3 -p ACK -e 5 -c 2 -a 34 -i 0 -k MAC
r -t 10.887776171 -s 3 -d 3 -p ACK -e 5 -c 2 -a 34 -i 0 -k MAC
n -t 10.888416138 -s 8 -S COLOR -c green3 -o black
n -t 10.888416138 -s 8 -S DLABEL -l [3] -L "Dev"
n -t 10.900000001 -s 9 -S DLABEL -l "Dev" -L ""
+ -t 10.901280000 -s 9 -d -1 -p CM7 -e 8 -c 2 -a 34 -i 0 -k MAC 
- -t 10.901280000 -s 9 -d -1 -p CM7 -e 8 -c 2 -a 34 -i 0 -k MAC
h -t 10.901280000 -s 9 -d -1 -p CM7 -e 8 -c 2 -a 34 -i 0 -k MAC -R 15.00 -D 0.00
r -t 10.901728034 -s 3 -d -1 -p CM7 -e 8 -c 2 -a 34 -i 0 -k MAC
r -t 10.901728047 -s 8 -d -1 -p CM7 -e 8 -c 2 -a 34 -i 0 -k MAC
+ -t 10.902688034 -s 3 -d 9 -p BCN -e 11 -c 2 -a 34 -i 0 -k MAC 
- -t 10.902688034 -s 3 -d 9 -p BCN -e 11 -c 2 -a 34 -i 0 -k MAC
h -t 10.902688034 -s 3 -d 9 -p BCN -e 11 -c 2 -a 34 -i 0 -k MAC
n -t 10.918417138 -s 8 -S COLOR -c green3 -o green3
+ -t 11.165280000 -s 9 -d -1 -p CM7 -e 8 -c 2 -a 34 -i 0 -k MAC 
- -t 11.165280000 -s 9 -d -1 -p CM7 -e 8 -c 2 -a 34 -i 0 -k MAC
h -t 11.165280000 -s 9 -d -1 -p CM7 -e 8 -c 2 -a 34 -i 0 -k MAC -R 15.00 -D 0.00
+ -t 11.428640000 -s 9 -d -1 -p CM7 -e 8 -c 2 -a 34 -i 0 -k MAC 
- -t 11.428640000 -s 9 -d -1 -p CM7 -e 8 -c 2 -a 34 -i 0 -k MAC
h -t 11.428640000 -s 9 -d -1 -p CM7 -e 8 -c 2 -a 34 -i 0 -k MAC -R 15.00 -D 0.00
+ -t 11.691680000 -s 9 -d 3 -p ACRP -e 17 -c 2 -a 34 -i 0 -k MAC 
- -t 11.691680000 -s 9 -d 3 -p ACRP -e 17 -c 2 -a 34 -i 0 -k MAC
h -t 11.691680000 -s 9 -d 3 -p ACRP -e 17 -c 2 -a 34 -i 0 -k MAC
r -t 11.692416034 -s 3 -d 3 -p ACRP -e 17 -c 2 -a 34 -i 0 -k MAC
+ -t 11.692608034 -s 3 -d 9 -p ACK -e 5 -c 2 -a 34 -i 0 -k MAC 
- -t 11.692608034 -s 3 -d 9 -p ACK -e 5 -c 2 -a 34 -i 0 -k MAC
h -t 11.692608034 -s 3 -d 9 -p ACK -e 5 -c 2 -a 34 -i 0 -k MAC
r -t 11.692960068 -s 9 -d 9 -p ACK -e 5 -c 2 -a 34 -i 0 -k MAC
+ -t 12.184480068 -s 9 -d 3 -p CM4 -e 16 -c 2 -a 34 -i 0 -k MAC 
- -t 12.184480068 -s 9 -d 3 -p CM4 -e 16 -c 2 -a 34 -i 0 -k MAC
h -t 12.184480068 -s 9 -d 3 -p CM4 -e 16 -c 2 -a 34 -i 0 -k MAC
r -t 12.185184103 -s 3 -d 3 -p CM4 -e 16 -c 2 -a 34 -i 0 -k MAC
+ -t 12.185376103 -s 3 -d 9 -p ACK -e 5 -c 2 -a 34 -i 0 -k MAC 
- -t 12.185376103 -s 3 -d 9 -p ACK -e 5 -c 2 -a 34 -i 0 -k MAC
h -t 12.185376103 -s 3 -d 9 -p ACK -e 5 -c 2 -a 34 -i 0 -k MAC
r -t 12.185728137 -s 9 -d 9 -p ACK -e 5 -c 2 -a 34 -i 0 -k MAC
+ -t 12.185920103 -s 3 -d 9 -p CM2 -e 25 -c 2 -a 34 -i 0 -k MAC 
- -t 12.185920103 -s 3 -d 9 -p CM2 -e 25 -c 2 -a 34 -i 0 -k MAC
h -t 12.185920103 -s 3 -d 9 -p CM2 -e 25 -c 2 -a 34 -i 0 -k MAC
r -t 12.186912137 -s 9 -d 9 -p CM2 -e 25 -c 2 -a 34 -i 0 -k MAC
+ -t 12.187104137 -s 9 -d 3 -p ACK -e 5 -c 2 -a 34 -i 0 -k MAC 
- -t 12.187104137 -s 9 -d 3 -p ACK -e 5 -c 2 -a 34 -i 0 -k MAC
h -t 12.187104137 -s 9 -d 3 -p ACK -e 5 -c 2 -a 34 -i 0 -k MAC
r -t 12.187456171 -s 3 -d 3 -p ACK -e 5 -c 2 -a 34 -i 0 -k MAC
n -t 12.188096138 -s 9 -S COLOR -c green3 -o black
n -t 12.188096138 -s 9 -S DLABEL -l [3] -L "Dev"
n -t 12.199999999999999 -s 10 -S DLABEL -l "Dev" -L ""
+ -t 12.200960000 -s 10 -d -1 -p CM7 -e 8 -c 2 -a 34 -i 0 -k MAC 
- -t 12.200960000 -s 10 -d -1 -p CM7 -e 8 -c 2 -a 34 -i 0 -k MAC
h -t 12.200960000 -s 10 -d -1 -p CM7 -e 8 -c 2 -a 34 -i 0 -k MAC -R 15.00 -D 0.00
r -t 12.201408025 -s 4 -d -1 -p CM7 -e 8 -c 2 -a 34 -i 0 -k MAC
r -t 12.201408025 -s 5 -d -1 -p CM7 -e 8 -c 2 -a 34 -i 0 -k MAC
r -t 12.201408033 -s 1 -d -1 -p CM7 -e 8 -c 2 -a 34 -i 0 -k MAC
+ -t 12.203648033 -s 1 -d 10 -p BCN -e 11 -c 2 -a 34 -i 0 -k MAC 
- -t 12.203648033 -s 1 -d 10 -p BCN -e 11 -c 2 -a 34 -i 0 -k MAC
h -t 12.203648033 -s 1 -d 10 -p BCN -e 11 -c 2 -a 34 -i 0 -k MAC
n -t 12.218097138 -s 9 -S COLOR -c green3 -o green3
+ -t 12.464640000 -s 10 -d -1 -p CM7 -e 8 -c 2 -a 34 -i 0 -k MAC 
- -t 12.464640000 -s 10 -d -1 -p CM7 -e 8 -c 2 -a 34 -i 0 -k MAC
h -t 12.464640000 -s 10 -d -1 -p CM7 -e 8 -c 2 -a 34 -i 0 -k MAC -R 15.00 -D 0.00
+ -t 12.728960000 -s 10 -d -1 -p CM7 -e 8 -c 2 -a 34 -i 0 -k MAC 
- -t 12.728960000 -s 10 -d -1 -p CM7 -e 8 -c 2 -a 34 -i 0 -k MAC
h -t 12.728960000 -s 10 -d -1 -p CM7 -e 8 -c 2 -a 34 -i 0 -k MAC -R 15.00 -D 0.00
+ -t 12.992000000 -s 10 -d 1 -p ACRP -e 17 -c 2 -a 34 -i 0 -k MAC 
- -t 12.992000000 -s 10 -d 1 -p ACRP -e 17 -c 2 -a 34 -i 0 -k MAC
h -t 12.992000000 -s 10 -d 1 -p ACRP -e 17 -c 2 -a 34 -i 0 -k MAC
r -t 12.992736033 -s 1 -d 1 -p ACRP -e 17 -c 2 -a 34 -i 0 -k MAC
+ -t 12.992928033 -s 1 -d 10 -p ACK -e 5 -c 2 -a 34 -i 0 -k MAC 
- -t 12.992928033 -s 1 -d 10 -p ACK -e 5 -c 2 -a 34 -i 0 -k MAC
h -t 12.992928033 -s 1 -d 10 -p ACK -e 5 -c 2 -a 34 -i 0 -k MAC
r -t 12.993280067 -s 10 -d 10 -p ACK -e 5 -c 2 -a 34 -i 0 -k MAC
+ -t 13.484800067 -s 10 -d 1 -p CM4 -e 16 -c 2 -a 34 -i 0 -k MAC 
- -t 13.484800067 -s 10 -d 1 -p CM4 -e 16 -c 2 -a 34 -i 0 -k MAC
h -t 13.484800067 -s 10 -d 1 -p CM4 -e 16 -c 2 -a 34 -i 0 -k MAC
r -t 13.485504100 -s 1 -d 1 -p CM4 -e 16 -c 2 -a 34 -i 0 -k MAC
+ -t 13.485696100 -s 1 -d 10 -p ACK -e 5 -c 2 -a 34 -i 0 -k MAC 
- -t 13.485696100 -s 1 -d 10 -p ACK -e 5 -c 2 -a 34 -i 0 -k MAC
h -t 13.485696100 -s 1 -d 10 -p ACK -e 5 -c 2 -a 34 -i 0 -k MAC
r -t 13.486048133 -s 10 -d 10 -p ACK -e 5 -c 2 -a 34 -i 0 -k MAC
+ -t 13.486240100 -s 1 -d 10 -p CM2 -e 25 -c 2 -a 34 -i 0 -k MAC 
- -t 13.486240100 -s 1 -d 10 -p CM2 -e 25 -c 2 -a 34 -i 0 -k MAC
h -t 13.486240100 -s 1 -d 10 -p CM2 -e 25 -c 2 -a 34 -i 0 -k MAC
r -t 13.487232133 -s 10 -d 10 -p CM2 -e 25 -c 2 -a 34 -i 0 -k MAC
+ -t 13.487424133 -s 10 -d 1 -p ACK -e 5 -c 2 -a 34 -i 0 -k MAC 
- -t 13.487424133 -s 10 -d 1 -p ACK -e 5 -c 2 -a 34 -i 0 -k MAC
h -t 13.487424133 -s 10 -d 1 -p ACK -e 5 -c 2 -a 34 -i 0 -k MAC
r -t 13.487776167 -s 1 -d 1 -p ACK -e 5 -c 2 -a 34 -i 0 -k MAC
n -t 13.488416134 -s 10 -S COLOR -c green3 -o black
n -t 13.488416134 -s 10 -S DLABEL -l [1] -L ""
n -t 13.518417134 -s 10 -S COLOR -c green3 -o green3
n -t 14.000000 -s 4 -x 23.000000 -y 47.000000 -U 0.827231 -V -0.354527 -T 16.923940
n -t 14.000000 -s 5 -x 37.000000 -y 47.000000 -U -0.827231 -V -0.354527 -T 16.923940
n -t 14.000000 -s 6 -x 16.000000 -y 16.000000 -U 0.354527 -V 0.827231 -T 16.923940
n -t 14.000000 -s 7 -x 16.000000 -y 30.000000 -U 0.354527 -V -0.827231 -T 16.923940
n -t 14.000000 -s 8 -x 46.000000 -y 30.000000 -U -0.354527 -V -0.827231 -T 16.923940
n -t 14.000000 -s 9 -x 46.000000 -y 16.000000 -U -0.354527 -V 0.827231 -T 16.923940
n -t 14.000000 -s 10 -x 30.000000 -y 50.000000 -U 0.499230 -V -0.748845 -T 36.055513
+ -t 20.000000000 -s 10 -d -1 -p cbr -e 80 -c 2 -a 35 -i 0 -k AGT 
- -t 20.000000000 -s 10 -d -1 -p cbr -e 80 -c 2 -a 35 -i 0 -k AGT
h -t 20.000000000 -s 10 -d -1 -p cbr -e 80 -c 2 -a 35 -i 0 -k AGT