s 22.026099194 _10_ MAC  --- 0 cbr 97 [0 0 a 800] ------- [10:0 0:0 30 0] [0] 0 0
r 22.030579243 _0_ MAC  --- 0 cbr 90 [0 0 a 800] ------- [10:0 0:0 30 0] [0] 1 0
s 22.037699194 _10_ MAC  --- 1 cbr 97 [0 0 a 800] ------- [10:0 0:0 30 0] [1] 0 0
r 22.042179243 _0_ MAC  --- 1 cbr 90 [0 0 a 800] ------- [10:0 0:0 30 0] [1] 1 0
s 22.047699194 _10_ MAC  --- 2 cbr 97 [0 0 a 800] ------- [10:0 0:0 30 0] [2] 0 0
r 22.052179243 _0_ MAC  --- 2 cbr 90 [0 0 a 800] ------- [10:0 0:0 30 0] [2] 1 0
s 22.056419194 _10_ MAC  --- 3 cbr 97 [0 0 a 800] ------- [10:0 0:0 30 0] [3] 0 0
r 22.060899243 _0_ MAC  --- 3 cbr 90 [0 0 a 800] ------- [10:0 0:0 30 0] [3] 1 0
s 22.067059194 _10_ MAC  --- 4 cbr 97 [0 0 a 800] ------- [10:0 0:0 30 0] [4] 0 0
r 22.071539243 _0_ MAC  --- 4 cbr 90 [0 0 a 800] ------- [10:0 0:0 30 0] [4] 1 0
s 22.077379194 _10_ MAC  --- 5 cbr 97 [0 0 a 800] ------- [10:0 0:0 30 0] [5] 0 0
r 22.081859243 _0_ MAC  --- 5 cbr 90 [0 0 a 800] ------- [10:0 0:0 30 0] [5] 1 0
s 22.087699194 _10_ MAC  --- 6 cbr 97 [0 0 a 800] ------- [10:0 0:0 30 0] [6] 0 0
r 22.092179243 _0_ MAC  --- 6 cbr 90 [0 0 a 800] ------- [10:0 0:0 30 0] [6] 1 0
s 22.097699194 _10_ MAC  --- 7 cbr 97 [0 0 a 800] ------- [10:0 0:0 30 0] [7] 0 0
r 22.102179242 _0_ MAC  --- 7 cbr 90 [0 0 a 800] ------- [10:0 0:0 30 0] [7] 1 0
s 22.107059194 _10_ MAC  --- 8 cbr 97 [0 0 a 800] ------- [10:0 0:0 30 0] [8] 0 0
r 22.111539242 _0_ MAC  --- 8 cbr 90 [0 0 a 800] ------- [10:0 0:0 30 0] [8] 1 0
s 22.115459194 _10_ MAC  --- 9 cbr 97 [0 0 a 800] ------- [10:0 0:0 30 0] [9] 0 0
r 22.119939242 _0_ MAC  --- 9 cbr 90 [0 0 a 800] ------- [10:0 0:0 30 0] [9] 1 0
s 22.127379194 _10_ MAC  --- 10 cbr 97 [0 0 a 800] ------- [10:0 0:0 30 0] [10] 0 0
r 22.131859242 _0_ MAC  --- 10 cbr 90 [0 0 a 800] ------- [10:0 0:0 30 0] [10] 1 0
s 22.201305000 _10_ MAC  --- 11 cbr 97 [0 0 a 800] ------- [10:0 0:0 30 0] [11] 0 0
r 22.205785048 _0_ MAC  --- 11 cbr 90 [0 0 a 800] ------- [10:0 0:0 30 0] [11] 1 0
s 22.401625000 _10_ MAC  --- 12 cbr 97 [0 0 a 800] ------- [10:0 0:0 30 0] [12] 0 0
r 22.406105048 _0_ MAC  --- 12 cbr 90 [0 0 a 800] ------- [10:0 0:0 30 0] [12] 1 0
s 22.602585000 _10_ MAC  --- 13 cbr 97 [0 0 a 800] ------- [10:0 0:0 30 0] [13] 0 0
r 22.607065047 _0_ MAC  --- 13 cbr 90 [0 0 a 800] ------- [10:0 0:0 30 0] [13] 1 0
s 22.800345000 _10_ MAC  --- 14 cbr 97 [0 0 a 800] ------- [10:0 0:0 30 0] [14] 0 0
r 22.804825047 _0_ MAC  --- 14 cbr 90 [0 0 a 800] ------- [10:0 0:0 30 0] [14] 1 0
s 23.002585000 _10_ MAC  --- 15 cbr 97 [0 0 a 800] ------- [10:0 0:0 30 0] [15] 0 0
r 23.007065047 _0_ MAC  --- 15 cbr 90 [0 0 a 800] ------- [10:0 0:0 30 0] [15] 1 0
s 23.201945000 _10_ MAC  --- 16 cbr 97 [0 0 a 800] ------- [10:0 0:0 30 0] [16] 0 0
r 23.206425046 _0_ MAC  --- 16 cbr 90 [0 0 a 800] ------- [10:0 0:0 30 0] [16] 1 0
s 23.401625000 _10_ MAC  --- 17 cbr 97 [0 0 a 800] ------- [10:0 0:0 30 0] [17] 0 0
r 23.406105046 _0_ MAC  --- 17 cbr 90 [0 0 a 800] ------- [10:0 0:0 30 0] [17] 1 0
s 23.601305000 _10_ MAC  --- 18 cbr 97 [0 0 a 800] ------- [10:0 0:0 30 0] [18] 0 0
r 23.605785046 _0_ MAC  --- 18 cbr 90 [0 0 a 800] ------- [10:0 0:0 30 0] [18] 1 0
s 23.801625000 _10_ MAC  --- 19 cbr 97 [0 0 a 800] ------- [10:0 0:0 30 0] [19] 0 0
r 23.806105045 _0_ MAC  --- 19 cbr 90 [0 0 a 800] ------- [10:0 0:0 30 0] [19] 1 0
s 24.001625000 _10_ MAC  --- 20 cbr 97 [0 0 a 800] ------- [10:0 0:0 30 0] [20] 0 0
r 24.006105045 _0_ MAC  --- 20 cbr 90 [0 0 a 800] ------- [10:0 0:0 30 0] [20] 1 0
s 24.202585000 _10_ MAC  --- 21 cbr 97 [0 0 a 800] ------- [10:0 0:0 30 0] [21] 0 0
r 24.207065045 _0_ MAC  --- 21 cbr 90 [0 0 a 800] ------- [10:0 0:0 30 0] [21] 1 0
s 24.401305000 _10_ MAC  --- 22 cbr 97 [0 0 a 800] ------- [10:0 0:0 30 0] [22] 0 0
r 24.405785044 _0_ MAC  --- 22 cbr 90 [0 0 a 800] ------- [10:0 0:0 30 0] [22] 1 0
s 24.600345000 _10_ MAC  --- 23 cbr 97 [0 0 a 800] ------- [10:0 0:0 30 0] [23] 0 0
r 24.604825044 _0_ MAC  --- 23 cbr 90 [0 0 a 800] ------- [10:0 0:0 30 0] [23] 1 0
s 24.800345000 _10_ MAC  --- 24 cbr 97 [0 0 a 800] ------- [10:0 0:0 30 0] [24] 0 0
r 24.804825044 _0_ MAC  --- 24 cbr 90 [0 0 a 800] ------- [10:0 0:0 30 0] [24] 1 0
s 25.002585000 _10_ MAC  --- 25 cbr 97 [0 0 a 800] ------- [10:0 0:0 30 0] [25] 0 0
r 25.007065043 _0_ MAC  --- 25 cbr 90 [0 0 a 800] ------- [10:0 0:0 30 0] [25] 1 0
s 25.201945000 _10_ MAC  --- 26 cbr 97 [0 0 a 800] ------- [10:0 0:0 30 0] [26] 0 0
r 25.206425043 _0_ MAC  --- 26 cbr 90 [0 0 a 800] ------- [10:0 0:0 30 0] [26] 1 0
s 25.402585000 _10_ MAC  --- 27 cbr 97 [0 0 a 800] ------- [10:0 0:0 30 0] [27] 0 0
r 25.407065043 _0_ MAC  --- 27 cbr 90 [0 0 a 800] ------- [10:0 0:0 30 0] [27] 1 0
s 25.602265000 _10_ MAC  --- 28 cbr 97 [0 0 a 800] ------- [10:0 0:0 30 0] [28] 0 0
r 25.606745042 _0_ MAC  --- 28 cbr 90 [0 0 a 800] ------- [10:0 0:0 30 0] [28] 1 0
s 25.800985000 _10_ MAC  --- 29 cbr 97 [0 0 a 800] ------- [10:0 0:0 30 0] [29] 0 0
r 25.805465042 _0_ MAC  --- 29 cbr 90 [0 0 a 800] ------- [10:0 0:0 30 0] [29] 1 0
s 26.000985000 _10_ MAC  --- 30 cbr 97 [0 0 a 800] ------- [10:0 0:0 30 0] [30] 0 0
r 26.005465042 _0_ MAC  --- 30 cbr 90 [0 0 a 800] ------- [10:0 0:0 30 0] [30] 1 0
s 26.201305000 _10_ MAC  --- 31 cbr 97 [0 0 a 800] ------- [10:0 0:0 30 0] [31] 0 0
r 26.205785042 _0_ MAC  --- 31 cbr 90 [0 0 a 800] ------- [10:0 0:0 30 0] [31] 1 0
s 26.401945000 _10_ MAC  --- 32 cbr 97 [0 0 a 800] ------- [10:0 0:0 30 0] [32] 0 0
r 26.406425041 _0_ MAC  --- 32 cbr 90 [0 0 a 800] ------- [10:0 0:0 30 0] [32] 1 0
s 26.600345000 _10_ MAC  --- 33 cbr 97 [0 0 a 800] ------- [10:0 0:0 30 0] [33] 0 0
r 26.604825041 _0_ MAC  --- 33 cbr 90 [0 0 a 800] ------- [10:0 0:0 30 0] [33] 1 0
s 26.801305000 _10_ MAC  --- 34 cbr 97 [0 0 a 800] ------- [10:0 0:0 30 0] [34] 0 0
r 26.805785041 _0_ MAC  --- 34 cbr 90 [0 0 a 800] ------- [10:0 0:0 30 0] [34] 1 0
s 27.000985000 _10_ MAC  --- 35 cbr 97 [0 0 a 800] ------- [10:0 0:0 30 0] [35] 0 0
r 27.005465040 _0_ MAC  --- 35 cbr 90 [0 0 a 800] ------- [10:0 0:0 30 0] [35] 1 0
s 27.200985000 _10_ MAC  --- 36 cbr 97 [0 0 a 800] ------- [10:0 0:0 30 0] [36] 0 0
r 27.205465040 _0_ MAC  --- 36 cbr 90 [0 0 a 800] ------- [10:0 0:0 30 0] [36] 1 0
s 27.400985000 _10_ MAC  --- 37 cbr 97 [0 0 a 800] ------- [10:0 0:0 30 0] [37] 0 0
r 27.405465040 _0_ MAC  --- 37 cbr 90 [0 0 a 800] ------- [10:0 0:0 30 0] [37] 1 0
s 27.601945000 _10_ MAC  --- 38 cbr 97 [0 0 a 800] ------- [10:0 0:0 30 0] [38] 0 0
r 27.606425040 _0_ MAC  --- 38 cbr 90 [0 0 a 800] ------- [10:0 0:0 30 0] [38] 1 0
s 27.800985000 _10_ MAC  --- 39 cbr 97 [0 0 a 800] ------- [10:0 0:0 30 0] [39] 0 0
r 27.805465040 _0_ MAC  --- 39 cbr 90 [0 0 a 800] ------- [10:0 0:0 30 0] [39] 1 0
s 28.002585000 _10_ MAC  --- 40 cbr 97 [0 0 a 800] ------- [10:0 0:0 30 0] [40] 0 0
r 28.007065039 _0_ MAC  --- 40 cbr 90 [0 0 a 800] ------- [10:0 0:0 30 0] [40] 1 0
s 28.202585000 _10_ MAC  --- 41 cbr 97 [0 0 a 800] ------- [10:0 0:0 30 0] [41] 0 0
r 28.207065039 _0_ MAC  --- 41 cbr 90 [0 0 a 800] ------- [10:0 0:0 30 0] [41] 1 0
s 28.400665000 _10_ MAC  --- 42 cbr 97 [0 0 a 800] ------- [10:0 0:0 30 0] [42] 0 0
r 28.405145039 _0_ MAC  --- 42 cbr 90 [0 0 a 800] ------- [10:0 0:0 30 0] [42] 1 0
s 28.600345000 _10_ MAC  --- 43 cbr 97 [0 0 a 800] ------- [10:0 0:0 30 0] [43] 0 0
r 28.604825039 _0_ MAC  --- 43 cbr 90 [0 0 a 800] ------- [10:0 0:0 30 0] [43] 1 0
s 28.801625000 _10_ MAC  --- 44 cbr 97 [0 0 a 800] ------- [10:0 0:0 30 0] [44] 0 0
r 28.806105039 _0_ MAC  --- 44 cbr 90 [0 0 a 800] ------- [10:0 0:0 30 0] [44] 1 0
s 29.002265000 _10_ MAC  --- 45 cbr 97 [0 0 a 800] ------- [10:0 0:0 30 0] [45] 0 0
r 29.006745038 _0_ MAC  --- 45 cbr 90 [0 0 a 800] ------- [10:0 0:0 30 0] [45] 1 0
s 29.201305000 _10_ MAC  --- 46 cbr 97 [0 0 a 800] ------- [10:0 0:0 30 0] [46] 0 0
r 29.205785038 _0_ MAC  --- 46 cbr 90 [0 0 a 800] ------- [10:0 0:0 30 0] [46] 1 0
s 29.401945000 _10_ MAC  --- 47 cbr 97 [0 0 a 800] ------- [10:0 0:0 30 0] [47] 0 0
r 29.406425038 _0_ MAC  --- 47 cbr 90 [0 0 a 800] ------- [10:0 0:0 30 0] [47] 1 0
s 29.601945000 _10_ MAC  --- 48 cbr 97 [0 0 a 800] ------- [10:0 0:0 30 0] [48] 0 0
r 29.606425038 _0_ MAC  --- 48 cbr 90 [0 0 a 800] ------- [10:0 0:0 30 0] [48] 1 0
s 29.801945000 _10_ MAC  --- 49 cbr 97 [0 0 a 800] ------- [10:0 0:0 30 0] [49] 0 0
r 29.806425038 _0_ MAC  --- 49 cbr 90 [0 0 a 800] ------- [10:0 0:0 30 0] [49] 1 0
s 30.002265000 _10_ MAC  --- 50 cbr 97 [0 0 a 800] ------- [10:0 0:0 30 0] [50] 0 0
r 30.006745038 _0_ MAC  --- 50 cbr 90 [0 0 a 800] ------- [10:0 0:0 30 0] [50] 1 0
s 30.202585000 _10_ MAC  --- 51 cbr 97 [0 0 a 800] ------- [10:0 0:0 30 0] [51] 0 0
r 30.207065038 _0_ MAC  --- 51 cbr 90 [0 0 a 800] ------- [10:0 0:0 30 0] [51] 1 0
s 30.401945000 _10_ MAC  --- 52 cbr 97 [0 0 a 800] ------- [10:0 0:0 30 0] [52] 0 0
r 30.406425038 _0_ MAC  --- 52 cbr 90 [0 0 a 800] ------- [10:0 0:0 30 0] [52] 1 0
s 30.600665000 _10_ MAC  --- 53 cbr 97 [0 0 a 800] ------- [10:0 0:0 30 0] [53] 0 0
r 30.605145037 _0_ MAC  --- 53 cbr 90 [0 0 a 800] ------- [10:0 0:0 30 0] [53] 1 0
s 30.801305000 _10_ MAC  --- 54 cbr 97 [0 0 a 800] ------- [10:0 0:0 30 0] [54] 0 0
r 30.805785037 _0_ MAC  --- 54 cbr 90 [0 0 a 800] ------- [10:0 0:0 30 0] [54] 1 0
s 31.001625000 _10_ MAC  --- 55 cbr 97 [0 0 a 800] ------- [10:0 0:0 30 0] [55] 0 0
r 31.006105037 _0_ MAC  --- 55 cbr 90 [0 0 a 800] ------- [10:0 0:0 30 0] [55] 1 0
s 31.200985000 _10_ MAC  --- 56 cbr 97 [0 0 a 800] ------- [10:0 0:0 30 0] [56] 0 0
r 31.205465037 _0_ MAC  --- 56 cbr 90 [0 0 a 800] ------- [10:0 0:0 30 0] [56] 1 0
s 31.401305000 _10_ MAC  --- 57 cbr 97 [0 0 a 800] ------- [10:0 0:0 30 0] [57] 0 0
r 31.405785037 _0_ MAC  --- 57 cbr 90 [0 0 a 800] ------- [10:0 0:0 30 0] [57] 1 0
s 31.601305000 _10_ MAC  --- 58 cbr 97 [0 0 a 800] ------- [10:0 0:0 30 0] [58] 0 0
r 31.605785037 _0_ MAC  --- 58 cbr 90 [0 0 a 800] ------- [10:0 0:0 30 0] [58] 1 0
s 31.802585000 _10_ MAC  --- 59 cbr 97 [0 0 a 800] ------- [10:0 0:0 30 0] [59] 0 0
r 31.807065037 _0_ MAC  --- 59 cbr 90 [0 0 a 800] ------- [10:0 0:0 30 0] [59] 1 0
s 32.001625000 _10_ MAC  --- 60 cbr 97 [0 0 a 800] ------- [10:0 0:0 30 0] [60] 0 0
r 32.006105037 _0_ MAC  --- 60 cbr 90 [0 0 a 800] ------- [10:0 0:0 30 0] [60] 1 0
s 32.200345000 _10_ MAC  --- 61 cbr 97 [0 0 a 800] ------- [10:0 0:0 30 0] [61] 0 0
r 32.204825037 _0_ MAC  --- 61 cbr 90 [0 0 a 800] ------- [10:0 0:0 30 0] [61] 1 0
s 32.400665000 _10_ MAC  --- 62 cbr 97 [0 0 a 800] ------- [10:0 0:0 30 0] [62] 0 0
r 32.405145037 _0_ MAC  --- 62 cbr 90 [0 0 a 800] ------- [10:0 0:0 30 0] [62] 1 0
s 32.602265000 _10_ MAC  --- 63 cbr 97 [0 0 a 800] ------- [10:0 0:0 30 0] [63] 0 0
r 32.606745037 _0_ MAC  --- 63 cbr 90 [0 0 a 800] ------- [10:0 0:0 30 0] [63] 1 0
s 32.801625000 _10_ MAC  --- 64 cbr 97 [0 0 a 800] ------- [10:0 0:0 30 0] [64] 0 0
r 32.806105037 _0_ MAC  --- 64 cbr 90 [0 0 a 800] ------- [10:0 0:0 30 0] [64] 1 0
s 33.001625000 _10_ MAC  --- 65 cbr 97 [0 0 a 800] ------- [10:0 0:0 30 0] [65] 0 0
r 33.006105037 _0_ MAC  --- 65 cbr 90 [0 0 a 800] ------- [10:0 0:0 30 0] [65] 1 0
s 33.202585000 _10_ MAC  --- 66 cbr 97 [0 0 a 800] ------- [10:0 0:0 30 0] [66] 0 0
r 33.207065037 _0_ MAC  --- 66 cbr 90 [0 0 a 800] ------- [10:0 0:0 30 0] [66] 1 0
s 33.401305000 _10_ MAC  --- 67 cbr 97 [0 0 a 800] ------- [10:0 0:0 30 0] [67] 0 0
r 33.405785037 _0_ MAC  --- 67 cbr 90 [0 0 a 800] ------- [10:0 0:0 30 0] [67] 1 0
s 33.600665000 _10_ MAC  --- 68 cbr 97 [0 0 a 800] ------- [10:0 0:0 30 0] [68] 0 0
r 33.605145037 _0_ MAC  --- 68 cbr 90 [0 0 a 800] ------- [10:0 0:0 30 0] [68] 1 0
s 33.801305000 _10_ MAC  --- 69 cbr 97 [0 0 a 800] ------- [10:0 0:0 30 0] [69] 0 0
r 33.805785037 _0_ MAC  --- 69 cbr 90 [0 0 a 800] ------- [10:0 0:0 30 0] [69] 1 0
s 34.001625000 _10_ MAC  --- 70 cbr 97 [0 0 a 800] ------- [10:0 0:0 30 0] [70] 0 0
r 34.006105037 _0_ MAC  --- 70 cbr 90 [0 0 a 800] ------- [10:0 0:0 30 0] [70] 1 0
s 34.201625000 _10_ MAC  --- 71 cbr 97 [0 0 a 800] ------- [10:0 0:0 30 0] [71] 0 0
r 34.206105037 _0_ MAC  --- 71 cbr 90 [0 0 a 800] ------- [10:0 0:0 30 0] [71] 1 0
s 34.401945000 _10_ MAC  --- 72 cbr 97 [0 0 a 800] ------- [10:0 0:0 30 0] [72] 0 0
r 34.406425037 _0_ MAC  --- 72 cbr 90 [0 0 a 800] ------- [10:0 0:0 30 0] [72] 1 0
s 34.601945000 _10_ MAC  --- 73 cbr 97 [0 0 a 800] ------- [10:0 0:0 30 0] [73] 0 0
r 34.606425038 _0_ MAC  --- 73 cbr 90 [0 0 a 800] ------- [10:0 0:0 30 0] [73] 1 0
s 34.801625000 _10_ MAC  --- 74 cbr 97 [0 0 a 800] ------- [10:0 0:0 30 0] [74] 0 0
r 34.806105038 _0_ MAC  --- 74 cbr 90 [0 0 a 800] ------- [10:0 0:0 30 0] [74] 1 0
s 35.000985000 _10_ MAC  --- 75 cbr 97 [0 0 a 800] ------- [10:0 0:0 30 0] [75] 0 0
r 35.005465038 _0_ MAC  --- 75 cbr 90 [0 0 a 800] ------- [10:0 0:0 30 0] [75] 1 0
s 35.201625000 _10_ MAC  --- 76 cbr 97 [0 0 a 800] ------- [10:0 0:0 30 0] [76] 0 0
r 35.206105038 _0_ MAC  --- 76 cbr 90 [0 0 a 800] ------- [10:0 0:0 30 0] [76] 1 0
s 35.400665000 _10_ MAC  --- 77 cbr 97 [0 0 a 800] ------- [10:0 0:0 30 0] [77] 0 0
r 35.405145038 _0_ MAC  --- 77 cbr 90 [0 0 a 800] ------- [10:0 0:0 30 0] [77] 1 0
s 35.601305000 _10_ MAC  --- 78 cbr 97 [0 0 a 800] ------- [10:0 0:0 30 0] [78] 0 0
r 35.605785038 _0_ MAC  --- 78 cbr 90 [0 0 a 800] ------- [10:0 0:0 30 0] [78] 1 0
s 35.800345000 _10_ MAC  --- 79 cbr 97 [0 0 a 800] ------- [10:0 0:0 30 0] [79] 0 0
r 35.804825038 _0_ MAC  --- 79 cbr 90 [0 0 a 800] ------- [10:0 0:0 30 0] [79] 1 0
s 36.001945000 _10_ MAC  --- 80 cbr 97 [0 0 a 800] ------- [10:0 0:0 30 0] [80] 0 0
r 36.006425038 _0_ MAC  --- 80 cbr 90 [0 0 a 800] ------- [10:0 0:0 30 0] [80] 1 0
s 36.200665000 _10_ MAC  --- 81 cbr 97 [0 0 a 800] ------- [10:0 0:0 30 0] [81] 0 0
r 36.205145039 _0_ MAC  --- 81 cbr 90 [0 0 a 800] ------- [10:0 0:0 30 0] [81] 1 0
s 36.402585000 _10_ MAC  --- 82 cbr 97 [0 0 a 800] ------- [10:0 0:0 30 0] [82] 0 0
r 36.407065039 _0_ MAC  --- 82 cbr 90 [0 0 a 800] ------- [10:0 0:0 30 0] [82] 1 0
s 36.602585000 _10_ MAC  --- 83 cbr 97 [0 0 a 800] ------- [10:0 0:0 30 0] [83] 0 0
r 36.607065039 _0_ MAC  --- 83 cbr 90 [0 0 a 800] ------- [10:0 0:0 30 0] [83] 1 0
s 36.800345000 _10_ MAC  --- 84 cbr 97 [0 0 a 800] ------- [10:0 0:0 30 0] [84] 0 0
r 36.804825039 _0_ MAC  --- 84 cbr 90 [0 0 a 800] ------- [10:0 0:0 30 0] [84] 1 0
s 37.001945000 _10_ MAC  --- 85 cbr 97 [0 0 a 800] ------- [10:0 0:0 30 0] [85] 0 0
r 37.006425039 _0_ MAC  --- 85 cbr 90 [0 0 a 800] ------- [10:0 0:0 30 0] [85] 1 0
s 37.201945000 _10_ MAC  --- 86 cbr 97 [0 0 a 800] ------- [10:0 0:0 30 0] [86] 0 0
r 37.206425040 _0_ MAC  --- 86 cbr 90 [0 0 a 800] ------- [10:0 0:0 30 0] [86] 1 0
s 37.400665000 _10_ MAC  --- 87 cbr 97 [0 0 a 800] ------- [10:0 0:0 30 0] [87] 0 0
r 37.405145040 _0_ MAC  --- 87 cbr 90 [0 0 a 800] ------- [10:0 0:0 30 0] [87] 1 0
s 37.601625000 _10_ MAC  --- 88 cbr 97 [0 0 a 800] ------- [10:0 0:0 30 0] [88] 0 0
r 37.606105040 _0_ MAC  --- 88 cbr 90 [0 0 a 800] ------- [10:0 0:0 30 0] [88] 1 0
s 37.802265000 _10_ MAC  --- 89 cbr 97 [0 0 a 800] ------- [10:0 0:0 30 0] [89] 0 0
r 37.806745040 _0_ MAC  --- 89 cbr 90 [0 0 a 800] ------- [10:0 0:0 30 0] [89] 1 0
s 38.001945000 _10_ MAC  --- 90 cbr 97 [0 0 a 800] ------- [10:0 0:0 30 0] [90] 0 0
r 38.006425041 _0_ MAC  --- 90 cbr 90 [0 0 a 800] ------- [10:0 0:0 30 0] [90] 1 0
s 38.202585000 _10_ MAC  --- 91 cbr 97 [0 0 a 800] ------- [10:0 0:0 30 0] [91] 0 0
r 38.207065041 _0_ MAC  --- 91 cbr 90 [0 0 a 800] ------- [10:0 0:0 30 0] [91] 1 0
s 38.401625000 _10_ MAC  --- 92 cbr 97 [0 0 a 800] ------- [10:0 0:0 30 0] [92] 0 0
r 38.406105041 _0_ MAC  --- 92 cbr 90 [0 0 a 800] ------- [10:0 0:0 30 0] [92] 1 0
s 38.600665000 _10_ MAC  --- 93 cbr 97 [0 0 a 800] ------- [10:0 0:0 30 0] [93] 0 0
r 38.605145041 _0_ MAC  --- 93 cbr 90 [0 0 a 800] ------- [10:0 0:0 30 0] [93] 1 0
s 38.801305000 _10_ MAC  --- 94 cbr 97 [0 0 a 800] ------- [10:0 0:0 30 0] [94] 0 0
r 38.805785042 _0_ MAC  --- 94 cbr 90 [0 0 a 800] ------- [10:0 0:0 30 0] [94] 1 0
s 39.002585000 _10_ MAC  --- 95 cbr 97 [0 0 a 800] ------- [10:0 0:0 30 0] [95] 0 0
r 39.007065042 _0_ MAC  --- 95 cbr 90 [0 0 a 800] ------- [10:0 0:0 30 0] [95] 1 0
s 39.202265000 _10_ MAC  --- 96 cbr 97 [0 0 a 800] ------- [10:0 0:0 30 0] [96] 0 0
r 39.206745042 _0_ MAC  --- 96 cbr 90 [0 0 a 800] ------- [10:0 0:0 30 0] [96] 1 0
s 39.400665000 _10_ MAC  --- 97 cbr 97 [0 0 a 800] ------- [10:0 0:0 30 0] [97] 0 0
r 39.405145042 _0_ MAC  --- 97 cbr 90 [0 0 a 800] ------- [10:0 0:0 30 0] [97] 1 0
s 39.601625000 _10_ MAC  --- 98 cbr 97 [0 0 a 800] ------- [10:0 0:0 30 0] [98] 0 0
r 39.606105043 _0_ MAC  --- 98 cbr 90 [0 0 a 800] ------- [10:0 0:0 30 0] [98] 1 0
s 39.801625000 _10_ MAC  --- 99 cbr 97 [0 0 a 800] ------- [10:0 0:0 30 0] [99] 0 0
r 39.806105043 _0_ MAC  --- 99 cbr 90 [0 0 a 800] ------- [10:0 0:0 30 0] [99] 1 0
s 40.002265000 _10_ MAC  --- 100 cbr 97 [0 0 a 800] ------- [10:0 0:0 30 0] [100] 0 0
r 40.006745043 _0_ MAC  --- 100 cbr 90 [0 0 a 800] ------- [10:0 0:0 30 0] [100] 1 0
s 40.202585000 _10_ MAC  --- 101 cbr 97 [0 0 a 800] ------- [10:0 0:0 30 0] [101] 0 0
r 40.207065044 _0_ MAC  --- 101 cbr 90 [0 0 a 800] ------- [10:0 0:0 30 0] [101] 1 0
s 40.402265000 _10_ MAC  --- 102 cbr 97 [0 0 a 800] ------- [10:0 0:0 30 0] [102] 0 0
r 40.406745044 _0_ MAC  --- 102 cbr 90 [0 0 a 800] ------- [10:0 0:0 30 0] [102] 1 0
s 40.601625000 _10_ MAC  --- 103 cbr 97 [0 0 a 800] ------- [10:0 0:0 30 0] [103] 0 0
r 40.606105044 _0_ MAC  --- 103 cbr 90 [0 0 a 800] ------- [10:0 0:0 30 0] [103] 1 0
s 40.801625000 _10_ MAC  --- 104 cbr 97 [0 0 a 800] ------- [10:0 0:0 30 0] [104] 0 0
r 40.806105045 _0_ MAC  --- 104 cbr 90 [0 0 a 800] ------- [10:0 0:0 30 0] [104] 1 0
s 41.002585000 _10_ MAC  --- 105 cbr 97 [0 0 a 800] ------- [10:0 0:0 30 0] [105] 0 0
r 41.007065045 _0_ MAC  --- 105 cbr 90 [0 0 a 800] ------- [10:0 0:0 30 0] [105] 1 0
s 41.200345000 _10_ MAC  --- 106 cbr 97 [0 0 a 800] ------- [10:0 0:0 30 0] [106] 0 0
r 41.204825045 _0_ MAC  --- 106 cbr 90 [0 0 a 800] ------- [10:0 0:0 30 0] [106] 1 0
s 41.401945000 _10_ MAC  --- 107 cbr 97 [0 0 a 800] ------- [10:0 0:0 30 0] [107] 0 0
r 41.406425046 _0_ MAC  --- 107 cbr 90 [0 0 a 800] ------- [10:0 0:0 30 0] [107] 1 0
s 41.601305000 _10_ MAC  --- 108 cbr 97 [0 0 a 800] ------- [10:0 0:0 30 0] [108] 0 0
r 41.605785046 _0_ MAC  --- 108 cbr 90 [0 0 a 800] ------- [10:0 0:0 30 0] [108] 1 0
s 41.802265000 _10_ MAC  --- 109 cbr 97 [0 0 a 800] ------- [10:0 0:0 30 0] [109] 0 0
r 41.806745046 _0_ MAC  --- 109 cbr 90 [0 0 a 800] ------- [10:0 0:0 30 0] [109] 1 0
s 42.001625000 _10_ MAC  --- 110 cbr 97 [0 0 a 800] ------- [10:0 0:0 30 0] [110] 0 0
r 42.006105047 _0_ MAC  --- 110 cbr 90 [0 0 a 800] ------- [10:0 0:0 30 0] [110] 1 0
s 42.201945000 _10_ MAC  --- 111 cbr 97 [0 0 a 800] ------- [10:0 0:0 30 0] [111] 0 0
r 42.206425047 _0_ MAC  --- 111 cbr 90 [0 0 a 800] ------- [10:0 0:0 30 0] [111] 1 0
s 42.400345000 _10_ MAC  --- 112 cbr 97 [0 0 a 800] ------- [10:0 0:0 30 0] [112] 0 0
r 42.404825047 _0_ MAC  --- 112 cbr 90 [0 0 a 800] ------- [10:0 0:0 30 0] [112] 1 0
s 42.602585000 _10_ MAC  --- 113 cbr 97 [0 0 a 800] ------- [10:0 0:0 30 0] [113] 0 0
r 42.607065048 _0_ MAC  --- 113 cbr 90 [0 0 a 800] ------- [10:0 0:0 30 0] [113] 1 0
s 42.801625000 _10_ MAC  --- 114 cbr 97 [0 0 a 800] ------- [10:0 0:0 30 0] [114] 0 0
r 42.806105048 _0_ MAC  --- 114 cbr 90 [0 0 a 800] ------- [10:0 0:0 30 0] [114] 1 0
s 43.000345000 _10_ MAC  --- 115 cbr 97 [0 0 a 800] ------- [10:0 0:0 30 0] [115] 0 0
r 43.004825049 _0_ MAC  --- 115 cbr 90 [0 0 a 800] ------- [10:0 0:0 30 0] [115] 1 0
s 43.200985000 _10_ MAC  --- 116 cbr 97 [0 0 a 800] ------- [10:0 0:0 30 0] [116] 0 0
r 43.205465049 _0_ MAC  --- 116 cbr 90 [0 0 a 800] ------- [10:0 0:0 30 0] [116] 1 0
s 43.402265000 _10_ MAC  --- 117 cbr 97 [0 0 a 800] ------- [10:0 0:0 30 0] [117] 0 0
r 43.406745049 _0_ MAC  --- 117 cbr 90 [0 0 a 800] ------- [10:0 0:0 30 0] [117] 1 0
s 43.601305000 _10_ MAC  --- 118 cbr 97 [0 0 a 800] ------- [10:0 0:0 30 0] [118] 0 0
r 43.605785050 _0_ MAC  --- 118 cbr 90 [0 0 a 800] ------- [10:0 0:0 30 0] [118] 1 0
s 43.802585000 _10_ MAC  --- 119 cbr 97 [0 0 a 800] ------- [10:0 0:0 30 0] [119] 0 0
s 43.807065000 _10_ MAC  --- 119 cbr 97 [0 0 a 800] ------- [10:0 0:0 30 0] [119] 0 0
s 43.813785000 _10_ MAC  --- 119 cbr 97 [0 0 a 800] ------- [10:0 0:0 30 0] [119] 0 0
s 43.818905000 _10_ MAC  --- 119 cbr 97 [0 0 a 800] ------- [10:0 0:0 30 0] [119] 0 0
s 44.241190676 _10_ MAC  --- 120 cbr 97 [0 8 a 800] ------- [10:0 0:0 30 8] [120] 0 0
r 44.245670691 _8_ MAC  --- 120 cbr 90 [0 8 a 800] ------- [10:0 0:0 30 8] [120] 1 0
s 44.248280691 _8_ MAC  --- 120 cbr 97 [0 0 8 800] ------- [10:0 0:0 29 0] [120] 1 0
s 44.252278676 _10_ MAC  --- 121 cbr 97 [0 8 a 800] ------- [10:0 0:0 30 8] [121] 0 0
r 44.252760740 _0_ MAC  --- 120 cbr 90 [0 0 8 800] ------- [10:0 0:0 29 0] [120] 2 0
r 44.256758691 _8_ MAC  --- 121 cbr 90 [0 8 a 800] ------- [10:0 0:0 30 8] [121] 1 0
s 44.259368691 _8_ MAC  --- 121 cbr 97 [0 0 8 800] ------- [10:0 0:0 29 0] [121] 1 0
r 44.263848740 _0_ MAC  --- 121 cbr 90 [0 0 8 800] ------- [10:0 0:0 29 0] [121] 2 0
s 44.400345000 _10_ MAC  --- 122 cbr 97 [0 8 a 800] ------- [10:0 0:0 30 8] [122] 0 0
r 44.404825015 _8_ MAC  --- 122 cbr 90 [0 8 a 800] ------- [10:0 0:0 30 8] [122] 1 0
s 44.405835015 _8_ MAC  --- 122 cbr 97 [0 0 8 800] ------- [10:0 0:0 29 0] [122] 1 0
r 44.410315064 _0_ MAC  --- 122 cbr 90 [0 0 8 800] ------- [10:0 0:0 29 0] [122] 2 0
s 44.601305000 _10_ MAC  --- 123 cbr 97 [0 8 a 800] ------- [10:0 0:0 30 8] [123] 0 0
r 44.605785014 _8_ MAC  --- 123 cbr 90 [0 8 a 800] ------- [10:0 0:0 30 8] [123] 1 0
s 44.608395014 _8_ MAC  --- 123 cbr 97 [0 0 8 800] ------- [10:0 0:0 29 0] [123] 1 0
r 44.612875063 _0_ MAC  --- 123 cbr 90 [0 0 8 800] ------- [10:0 0:0 29 0] [123] 2 0
s 44.801945000 _10_ MAC  --- 124 cbr 97 [0 8 a 800] ------- [10:0 0:0 30 8] [124] 0 0
r 44.806425013 _8_ MAC  --- 124 cbr 90 [0 8 a 800] ------- [10:0 0:0 30 8] [124] 1 0
s 44.807115013 _8_ MAC  --- 124 cbr 97 [0 0 8 800] ------- [10:0 0:0 29 0] [124] 1 0
r 44.811595062 _0_ MAC  --- 124 cbr 90 [0 0 8 800] ------- [10:0 0:0 29 0] [124] 2 0
s 45.001305000 _10_ MAC  --- 125 cbr 97 [0 8 a 800] ------- [10:0 0:0 30 8] [125] 0 0
r 45.005785012 _8_ MAC  --- 125 cbr 90 [0 8 a 800] ------- [10:0 0:0 30 8] [125] 1 0
s 45.006795012 _8_ MAC  --- 125 cbr 97 [0 0 8 800] ------- [10:0 0:0 29 0] [125] 1 0
r 45.011275061 _0_ MAC  --- 125 cbr 90 [0 0 8 800] ------- [10:0 0:0 29 0] [125] 2 0
s 45.200985000 _10_ MAC  --- 126 cbr 97 [0 8 a 800] ------- [10:0 0:0 30 8] [126] 0 0
r 45.205465011 _8_ MAC  --- 126 cbr 90 [0 8 a 800] ------- [10:0 0:0 30 8] [126] 1 0
s 45.207435011 _8_ MAC  --- 126 cbr 97 [0 0 8 800] ------- [10:0 0:0 29 0] [126] 1 0
r 45.211915060 _0_ MAC  --- 126 cbr 90 [0 0 8 800] ------- [10:0 0:0 29 0] [126] 2 0
s 45.401625000 _10_ MAC  --- 127 cbr 97 [0 8 a 800] ------- [10:0 0:0 30 8] [127] 0 0
r 45.406105011 _8_ MAC  --- 127 cbr 90 [0 8 a 800] ------- [10:0 0:0 30 8] [127] 1 0
s 45.408075011 _8_ MAC  --- 127 cbr 97 [0 0 8 800] ------- [10:0 0:0 29 0] [127] 1 0
r 45.412555060 _0_ MAC  --- 127 cbr 90 [0 0 8 800] ------- [10:0 0:0 29 0] [127] 2 0
s 45.601305000 _10_ MAC  --- 128 cbr 97 [0 8 a 800] ------- [10:0 0:0 30 8] [128] 0 0
r 45.605785010 _8_ MAC  --- 128 cbr 90 [0 8 a 800] ------- [10:0 0:0 30 8] [128] 1 0
s 45.606795010 _8_ MAC  --- 128 cbr 97 [0 0 8 800] ------- [10:0 0:0 29 0] [128] 1 0
r 45.611275059 _0_ MAC  --- 128 cbr 90 [0 0 8 800] ------- [10:0 0:0 29 0] [128] 2 0
s 45.802265000 _10_ MAC  --- 129 cbr 97 [0 8 a 800] ------- [10:0 0:0 30 8] [129] 0 0
r 45.806745009 _8_ MAC  --- 129 cbr 90 [0 8 a 800] ------- [10:0 0:0 30 8] [129] 1 0
s 45.809355009 _8_ MAC  --- 129 cbr 97 [0 0 8 800] ------- [10:0 0:0 29 0] [129] 1 0
r 45.813835058 _0_ MAC  --- 129 cbr 90 [0 0 8 800] ------- [10:0 0:0 29 0] [129] 2 0
s 46.002265000 _10_ MAC  --- 130 cbr 97 [0 8 a 800] ------- [10:0 0:0 30 8] [130] 0 0
r 46.006745009 _8_ MAC  --- 130 cbr 90 [0 8 a 800] ------- [10:0 0:0 30 8] [130] 1 0
s 46.007115009 _8_ MAC  --- 130 cbr 97 [0 0 8 800] ------- [10:0 0:0 29 0] [130] 1 0
r 46.011595058 _0_ MAC  --- 130 cbr 90 [0 0 8 800] ------- [10:0 0:0 29 0] [130] 2 0
s 46.202585000 _10_ MAC  --- 131 cbr 97 [0 8 a 800] ------- [10:0 0:0 30 8] [131] 0 0
r 46.207065008 _8_ MAC  --- 131 cbr 90 [0 8 a 800] ------- [10:0 0:0 30 8] [131] 1 0
s 46.209675008 _8_ MAC  --- 131 cbr 97 [0 0 8 800] ------- [10:0 0:0 29 0] [131] 1 0
r 46.214155057 _0_ MAC  --- 131 cbr 90 [0 0 8 800] ------- [10:0 0:0 29 0] [131] 2 0
s 46.401625000 _10_ MAC  --- 132 cbr 97 [0 8 a 800] ------- [10:0 0:0 30 8] [132] 0 0
r 46.406105008 _8_ MAC  --- 132 cbr 90 [0 8 a 800] ------- [10:0 0:0 30 8] [132] 1 0
s 46.406795008 _8_ MAC  --- 132 cbr 97 [0 0 8 800] ------- [10:0 0:0 29 0] [132] 1 0
r 46.411275057 _0_ MAC  --- 132 cbr 90 [0 0 8 800] ------- [10:0 0:0 29 0] [132] 2 0
s 46.600985000 _10_ MAC  --- 133 cbr 97 [0 8 a 800] ------- [10:0 0:0 30 8] [133] 0 0
r 46.605465008 _8_ MAC  --- 133 cbr 90 [0 8 a 800] ------- [10:0 0:0 30 8] [133] 1 0
s 46.606795008 _8_ MAC  --- 133 cbr 97 [0 0 8 800] ------- [10:0 0:0 29 0] [133] 1 0
r 46.611275057 _0_ MAC  --- 133 cbr 90 [0 0 8 800] ------- [10:0 0:0 29 0] [133] 2 0
s 46.801305000 _10_ MAC  --- 134 cbr 97 [0 8 a 800] ------- [10:0 0:0 30 8] [134] 0 0
r 46.805785008 _8_ MAC  --- 134 cbr 90 [0 8 a 800] ------- [10:0 0:0 30 8] [134] 1 0
s 46.807115008 _8_ MAC  --- 134 cbr 97 [0 0 8 800] ------- [10:0 0:0 29 0] [134] 1 0
r 46.811595057 _0_ MAC  --- 134 cbr 90 [0 0 8 800] ------- [10:0 0:0 29 0] [134] 2 0
s 47.000665000 _10_ MAC  --- 135 cbr 97 [0 8 a 800] ------- [10:0 0:0 30 8] [135] 0 0
r 47.005145008 _8_ MAC  --- 135 cbr 90 [0 8 a 800] ------- [10:0 0:0 30 8] [135] 1 0
s 47.007755008 _8_ MAC  --- 135 cbr 97 [0 0 8 800] ------- [10:0 0:0 29 0] [135] 1 0
r 47.012235057 _0_ MAC  --- 135 cbr 90 [0 0 8 800] ------- [10:0 0:0 29 0] [135] 2 0
s 47.202585000 _10_ MAC  --- 136 cbr 97 [0 8 a 800] ------- [10:0 0:0 30 8] [136] 0 0
r 47.207065008 _8_ MAC  --- 136 cbr 90 [0 8 a 800] ------- [10:0 0:0 30 8] [136] 1 0
s 47.208075008 _8_ MAC  --- 136 cbr 97 [0 0 8 800] ------- [10:0 0:0 29 0] [136] 1 0
r 47.212555058 _0_ MAC  --- 136 cbr 90 [0 0 8 800] ------- [10:0 0:0 29 0] [136] 2 0
s 47.401945000 _10_ MAC  --- 137 cbr 97 [0 8 a 800] ------- [10:0 0:0 30 8] [137] 0 0
r 47.406425009 _8_ MAC  --- 137 cbr 90 [0 8 a 800] ------- [10:0 0:0 30 8] [137] 1 0
s 47.407755009 _8_ MAC  --- 137 cbr 97 [0 0 8 800] ------- [10:0 0:0 29 0] [137] 1 0
r 47.412235058 _0_ MAC  --- 137 cbr 90 [0 0 8 800] ------- [10:0 0:0 29 0] [137] 2 0
s 47.602265000 _10_ MAC  --- 138 cbr 97 [0 8 a 800] ------- [10:0 0:0 30 8] [138] 0 0
r 47.606745009 _8_ MAC  --- 138 cbr 90 [0 8 a 800] ------- [10:0 0:0 30 8] [138] 1 0
s 47.608075009 _8_ MAC  --- 138 cbr 97 [0 0 8 800] ------- [10:0 0:0 29 0] [138] 1 0
r 47.612555059 _0_ MAC  --- 138 cbr 90 [0 0 8 800] ------- [10:0 0:0 29 0] [138] 2 0
s 47.802585000 _10_ MAC  --- 139 cbr 97 [0 8 a 800] ------- [10:0 0:0 30 8] [139] 0 0
r 47.807065010 _8_ MAC  --- 139 cbr 90 [0 8 a 800] ------- [10:0 0:0 30 8] [139] 1 0
s 47.809355010 _8_ MAC  --- 139 cbr 97 [0 0 8 800] ------- [10:0 0:0 29 0] [139] 1 0
r 47.813835059 _0_ MAC  --- 139 cbr 90 [0 0 8 800] ------- [10:0 0:0 29 0] [139] 2 0
s 48.001305000 _10_ MAC  --- 140 cbr 97 [0 8 a 800] ------- [10:0 0:0 30 8] [140] 0 0
r 48.005785010 _8_ MAC  --- 140 cbr 90 [0 8 a 800] ------- [10:0 0:0 30 8] [140] 1 0
s 48.007115010 _8_ MAC  --- 140 cbr 97 [0 0 8 800] ------- [10:0 0:0 29 0] [140] 1 0
r 48.011595060 _0_ MAC  --- 140 cbr 90 [0 0 8 800] ------- [10:0 0:0 29 0] [140] 2 0
s 48.200985000 _10_ MAC  --- 141 cbr 97 [0 8 a 800] ------- [10:0 0:0 30 8] [141] 0 0
r 48.205465011 _8_ MAC  --- 141 cbr 90 [0 8 a 800] ------- [10:0 0:0 30 8] [141] 1 0
s 48.206475011 _8_ MAC  --- 141 cbr 97 [0 0 8 800] ------- [10:0 0:0 29 0] [141] 1 0
r 48.210955061 _0_ MAC  --- 141 cbr 90 [0 0 8 800] ------- [10:0 0:0 29 0] [141] 2 0
s 48.401945000 _10_ MAC  --- 142 cbr 97 [0 8 a 800] ------- [10:0 0:0 30 8] [142] 0 0
r 48.406425012 _8_ MAC  --- 142 cbr 90 [0 8 a 800] ------- [10:0 0:0 30 8] [142] 1 0
s 48.409035012 _8_ MAC  --- 142 cbr 97 [0 0 8 800] ------- [10:0 0:0 29 0] [142] 1 0
r 48.413515062 _0_ MAC  --- 142 cbr 90 [0 0 8 800] ------- [10:0 0:0 29 0] [142] 2 0
s 48.602585000 _10_ MAC  --- 143 cbr 97 [0 8 a 800] ------- [10:0 0:0 30 8] [143] 0 0
r 48.607065013 _8_ MAC  --- 143 cbr 90 [0 8 a 800] ------- [10:0 0:0 30 8] [143] 1 0
s 48.608395013 _8_ MAC  --- 143 cbr 97 [0 0 8 800] ------- [10:0 0:0 29 0] [143] 1 0
r 48.612875063 _0_ MAC  --- 143 cbr 90 [0 0 8 800] ------- [10:0 0:0 29 0] [143] 2 0
s 48.801305000 _10_ MAC  --- 144 cbr 97 [0 8 a 800] ------- [10:0 0:0 30 8] [144] 0 0
r 48.805785014 _8_ MAC  --- 144 cbr 90 [0 8 a 800] ------- [10:0 0:0 30 8] [144] 1 0
s 48.806155014 _8_ MAC  --- 144 cbr 97 [0 0 8 800] ------- [10:0 0:0 29 0] [144] 1 0
s 48.811595014 _8_ MAC  --- 144 cbr 97 [0 0 8 800] ------- [10:0 0:0 29 0] [144] 1 0
s 48.816715014 _8_ MAC  --- 144 cbr 97 [0 0 8 800] ------- [10:0 0:0 29 0] [144] 1 0
s 48.822795014 _8_ MAC  --- 144 cbr 97 [0 0 8 800] ------- [10:0 0:0 29 0] [144] 1 0
s 49.239623361 _10_ MAC  --- 145 cbr 97 [0 3 a 800] ------- [10:0 0:0 30 3] [145] 0 0
r 49.244103392 _3_ MAC  --- 145 cbr 90 [0 3 a 800] ------- [10:0 0:0 30 3] [145] 1 0
s 49.246393392 _3_ MAC  --- 145 cbr 97 [0 0 3 800] ------- [10:0 0:0 29 0] [145] 1 0
r 49.250873428 _0_ MAC  --- 145 cbr 90 [0 0 3 800] ------- [10:0 0:0 29 0] [145] 2 0
s 49.251671361 _10_ MAC  --- 146 cbr 97 [0 3 a 800] ------- [10:0 0:0 30 3] [146] 0 0
r 49.256151392 _3_ MAC  --- 146 cbr 90 [0 3 a 800] ------- [10:0 0:0 30 3] [146] 1 0
s 49.257161392 _3_ MAC  --- 146 cbr 97 [0 0 3 800] ------- [10:0 0:0 29 0] [146] 1 0
r 49.261641429 _0_ MAC  --- 146 cbr 90 [0 0 3 800] ------- [10:0 0:0 29 0] [146] 2 0
s 49.401945000 _10_ MAC  --- 147 cbr 97 [0 3 a 800] ------- [10:0 0:0 30 3] [147] 0 0
r 49.406425031 _3_ MAC  --- 147 cbr 90 [0 3 a 800] ------- [10:0 0:0 30 3] [147] 1 0
s 49.406795031 _3_ MAC  --- 147 cbr 97 [0 0 3 800] ------- [10:0 0:0 29 0] [147] 1 0
r 49.411275067 _0_ MAC  --- 147 cbr 90 [0 0 3 800] ------- [10:0 0:0 29 0] [147] 2 0